                         Program Version 5.0.4 -  RELEASE  -
|  1> %pal nprocs 24 end
|  2> %maxcore 3500
|  3> ! PBE0 D3BJ def2-TZVP TightSCF OPT FREQ TightOpt
|  4> ! CPCM(dmso)
|  5> %scf
|  6> MaxIter 800
|  7> end
|  8> %geom
|  9> MaxIter 800
| 10> MaxStep 0.2
| 11> end
| 12> *xyz 0 1
| 13>
| 14> C      -0.00124500     -0.55644200     -1.62022400
| 15> C      -0.06589600      0.66819500     -0.95235800
| 16> C       0.06709500     -1.71864800     -0.84639300
| 17> H      -0.14439700      1.58946000     -1.51795400
| 18> H       0.13961900     -2.68541700     -1.33118300
| 19> C      -0.06687300      0.73510900      0.42824000
| 20> C       0.07868300     -1.66505900      0.53382700
| 21> H      -0.13342200      1.69495200      0.93048800
| 22> H       0.14813200     -2.57151900      1.12388500
| 23> C       0.00914500     -0.43383900      1.17984300
| 24> O       0.01805000     -0.42724500      2.53012000
| 25> H      -0.03323400      0.48044100      2.85314400
| 26> C      -0.00539200     -0.61683200     -3.08744400
| 27> C       0.56164400      0.41374100     -3.84663800
| 28> C      -0.57760200     -1.70122300     -3.76340300
| 29> C       0.55600300      0.37282100     -5.22522100
| 30> C      -0.59202400     -1.75710500     -5.14207600
| 31> C      -0.02485700     -0.71475100     -5.85974000
| 32> H       1.03362700      1.25211500     -3.34964800
| 33> H      -1.03960800     -2.50343500     -3.20131700
| 34> H       1.00114900      1.16707200     -5.80843000
| 35> H      -1.04413100     -2.59072800     -5.66171000
| 36> N      -0.03999400     -0.76045100     -7.30892100
| 37> O       0.49267400      0.14872200     -7.91852800
| 38> O      -0.58545100     -1.70419100     -7.85063400
| 39> *
| 40>
| 41>                          ****END OF INPUT****
 Total Charge           Charge          ....    0
 Multiplicity           Mult            ....    1
 Number of Electrons    NEL             ....  112
Dispersion correction           -0.027482651
FINAL SINGLE POINT ENERGY      -742.521992741340
Dispersion correction            ... done
Dispersion correction           -0.027478835
FINAL SINGLE POINT ENERGY      -742.521993690321
Dispersion correction            ... done
                    ***********************HURRAY********************

CARTESIAN COORDINATES (ANGSTROEM)
---------------------------------
  C     -0.001369   -0.556337   -1.619852
  C     -0.065920    0.668443   -0.951676
  C      0.066984   -1.718752   -0.845860
  H     -0.144316    1.589661   -1.517283
  H      0.139513   -2.685396   -1.330803
  C     -0.066822    0.735212    0.429124
  C      0.078603   -1.665192    0.534562
  H     -0.133247    1.694971    0.931413
  H      0.148058   -2.571597    1.124567
  C      0.009140   -0.433912    1.180801
  O      0.018084   -0.427300    2.531155
  H     -0.032981    0.480492    2.853767
  C     -0.005518   -0.616695   -3.087523
  C      0.561584    0.414012   -3.847030
  C     -0.577783   -1.701279   -3.763708
  C      0.556048    0.372894   -5.225877
  C     -0.591989   -1.757256   -5.142650
  C     -0.024682   -0.714910   -5.860633
  H      1.033445    1.252402   -3.350034
  H     -1.039819   -2.503375   -3.201568
  H      1.001218    1.167082   -5.809056
  H     -1.043978   -2.590930   -5.662189
  N     -0.039424   -0.760911   -7.310163
  O      0.492216    0.148864   -7.919865
  O     -0.585351   -1.704445   -7.851893

 Multiplicity           Mult            ....    1
 Number of Electrons    NEL             ....  112
 Basis Dimension        Dim             ....  550

ORBITAL ENERGIES
----------------

  NO   OCC          E(Eh)            E(eV)
   0   2.0000     -19.245112      -523.6861
   1   2.0000     -19.245013      -523.6834
   2   2.0000     -19.243766      -523.6495
   3   2.0000     -14.629694      -398.0942
   4   2.0000     -10.296195      -280.1737
   5   2.0000     -10.286556      -279.9114
   6   2.0000     -10.261300      -279.2242
   7   2.0000     -10.251156      -278.9481
   8   2.0000     -10.250877      -278.9406
   9   2.0000     -10.242418      -278.7104
  10   2.0000     -10.242145      -278.7029
  11   2.0000     -10.241200      -278.6772
  12   2.0000     -10.237089      -278.5654
  13   2.0000     -10.236678      -278.5542
  14   2.0000     -10.230478      -278.3855
  15   2.0000     -10.228513      -278.3320
  16   2.0000      -1.279421       -34.8148
  17   2.0000      -1.102894       -30.0113
  18   2.0000      -1.097846       -29.8739
  19   2.0000      -0.924696       -25.1622
  20   2.0000      -0.894699       -24.3460
  21   2.0000      -0.844360       -22.9762
  22   2.0000      -0.796391       -21.6709
  23   2.0000      -0.783529       -21.3209
  24   2.0000      -0.781139       -21.2559
  25   2.0000      -0.718759       -19.5584
  26   2.0000      -0.664549       -18.0833
  27   2.0000      -0.646468       -17.5913
  28   2.0000      -0.632379       -17.2079
  29   2.0000      -0.608999       -16.5717
  30   2.0000      -0.590211       -16.0605
  31   2.0000      -0.571459       -15.5502
  32   2.0000      -0.568494       -15.4695
  33   2.0000      -0.548581       -14.9276
  34   2.0000      -0.539432       -14.6787
  35   2.0000      -0.508484       -13.8366
  36   2.0000      -0.482550       -13.1309
  37   2.0000      -0.474535       -12.9128
  38   2.0000      -0.465108       -12.6562
  39   2.0000      -0.456655       -12.4262
  40   2.0000      -0.443675       -12.0730
  41   2.0000      -0.441350       -12.0097
  42   2.0000      -0.436841       -11.8870
  43   2.0000      -0.416698       -11.3389
  44   2.0000      -0.406620       -11.0647
  45   2.0000      -0.380942       -10.3660
  46   2.0000      -0.377298       -10.2668
  47   2.0000      -0.368843       -10.0367
  48   2.0000      -0.352122        -9.5817
  49   2.0000      -0.342135        -9.3100
  50   2.0000      -0.340950        -9.2777
  51   2.0000      -0.321656        -8.7527
  52   2.0000      -0.301257        -8.1976
  53   2.0000      -0.289803        -7.8859
  54   2.0000      -0.279543        -7.6067
  55   2.0000      -0.236394        -6.4326
  56   0.0000      -0.096299        -2.6204
  57   0.0000      -0.027205        -0.7403
  58   0.0000      -0.022080        -0.6008
  59   0.0000      -0.014387        -0.3915
  60   0.0000       0.031445         0.8557

MULLIKEN ATOMIC CHARGES
-----------------------
   0 C :    0.145326
   1 C :   -0.224573
   2 C :   -0.212353
   3 H :    0.160280
   4 H :    0.157153
   5 C :   -0.250768
   6 C :   -0.256590
   7 H :    0.161084
   8 H :    0.146959
   9 C :    0.288052
  10 O :   -0.422898
  11 H :    0.370909
  12 C :    0.201090
  13 C :   -0.205746
  14 C :   -0.205763
  15 C :   -0.199003
  16 C :   -0.199187
  17 C :    0.118827
  18 H :    0.163851
  19 H :    0.163806
  20 H :    0.172159
  21 H :    0.171987
  22 N :    0.481178
  23 O :   -0.363066
  24 O :   -0.362716
Sum of atomic charges:   -0.0000000

LOEWDIN ATOMIC CHARGES
----------------------
   0 C :   -0.126928
   1 C :   -0.096433
   2 C :   -0.096063
   3 H :    0.161968
   4 H :    0.161711
   5 C :   -0.134647
   6 C :   -0.125667
   7 H :    0.160096
   8 H :    0.158500
   9 C :   -0.285550
  10 O :    0.091637
  11 H :    0.210727
  12 C :   -0.084660
  13 C :   -0.086596
  14 C :   -0.086271
  15 C :   -0.090174
  16 C :   -0.089837
  17 C :   -0.175982
  18 H :    0.164471
  19 H :    0.164366
  20 H :    0.165541
  21 H :    0.165546
  22 N :   -0.028446
  23 O :   -0.048750
  24 O :   -0.048557

  Mayer bond orders larger than 0.100000
B(  0-C ,  1-C ) :   1.3473 B(  0-C ,  2-C ) :   1.3441 B(  0-C , 12-C ) :   0.9266
B(  1-C ,  3-H ) :   0.9476 B(  1-C ,  5-C ) :   1.4295 B(  2-C ,  4-H ) :   0.9624
B(  2-C ,  6-C ) :   1.4795 B(  5-C ,  7-H ) :   0.9592 B(  5-C ,  9-C ) :   1.3428
B(  6-C ,  8-H ) :   0.9798 B(  6-C ,  9-C ) :   1.3576 B(  9-C , 10-O ) :   1.1467
B( 10-O , 11-H ) :   0.8484 B( 12-C , 13-C ) :   1.3368 B( 12-C , 14-C ) :   1.3371
B( 13-C , 15-C ) :   1.4703 B( 13-C , 18-H ) :   0.9584 B( 14-C , 16-C ) :   1.4689
B( 14-C , 19-H ) :   0.9595 B( 15-C , 17-C ) :   1.3548 B( 15-C , 20-H ) :   0.9450
B( 16-C , 17-C ) :   1.3549 B( 16-C , 21-H ) :   0.9456 B( 17-C , 22-N ) :   1.0254
B( 22-N , 23-O ) :   1.6045 B( 22-N , 24-O ) :   1.6054 B( 23-O , 24-O ) :   0.1806

Dispersion correction           -0.027478252
FINAL SINGLE POINT ENERGY      -742.521993410175

DIPOLE MOMENT
-------------
                                X             Y             Z
Electronic contribution:     -0.04921      -0.36481      -8.03632
Nuclear contribution   :      0.03233       1.20160      11.19376
                        -----------------------------------------
Total Dipole Moment    :     -0.01687       0.83678       3.15744
                        -----------------------------------------
Magnitude (a.u.)       :      3.26648
Magnitude (Debye)      :      8.30274

Dispersion correction in the Hessian             ... done   (      0.4 sec)

VIBRATIONAL FREQUENCIES
-----------------------

Scaling factor for frequencies =  1.000000000  (already applied!)

   0:         0.00 cm**-1
   1:         0.00 cm**-1
   2:         0.00 cm**-1
   3:         0.00 cm**-1
   4:         0.00 cm**-1
   5:         0.00 cm**-1
   6:        44.52 cm**-1
   7:        46.75 cm**-1
   8:        74.60 cm**-1
   9:        81.25 cm**-1
  10:       141.30 cm**-1
  11:       218.46 cm**-1
  12:       237.07 cm**-1
  13:       261.68 cm**-1
  14:       346.14 cm**-1
  15:       393.17 cm**-1
  16:       398.66 cm**-1
  17:       419.71 cm**-1
  18:       426.89 cm**-1
  19:       453.55 cm**-1
  20:       457.44 cm**-1
  21:       507.79 cm**-1
  22:       548.66 cm**-1
  23:       556.47 cm**-1
  24:       623.53 cm**-1
  25:       639.20 cm**-1
  26:       654.49 cm**-1
  27:       726.19 cm**-1
  28:       749.37 cm**-1
  29:       754.11 cm**-1
  30:       796.88 cm**-1
  31:       831.75 cm**-1
  32:       845.10 cm**-1
  33:       856.07 cm**-1
  34:       856.41 cm**-1
  35:       890.47 cm**-1
  36:       894.78 cm**-1
  37:       973.33 cm**-1
  38:       983.19 cm**-1
  39:       999.98 cm**-1
  40:      1002.25 cm**-1
  41:      1022.55 cm**-1
  42:      1032.75 cm**-1
  43:      1055.15 cm**-1
  44:      1130.69 cm**-1
  45:      1137.94 cm**-1
  46:      1139.52 cm**-1
  47:      1191.02 cm**-1
  48:      1199.51 cm**-1
  49:      1215.02 cm**-1
  50:      1313.10 cm**-1
  51:      1315.92 cm**-1
  52:      1326.65 cm**-1
  53:      1333.75 cm**-1
  54:      1381.02 cm**-1
  55:      1387.14 cm**-1
  56:      1399.91 cm**-1
  57:      1446.46 cm**-1
  58:      1484.29 cm**-1
  59:      1527.09 cm**-1
  60:      1567.49 cm**-1
  61:      1591.54 cm**-1
  62:      1643.37 cm**-1
  63:      1652.04 cm**-1
  64:      1660.15 cm**-1
  65:      1674.50 cm**-1
  66:      3188.80 cm**-1
  67:      3198.51 cm**-1
  68:      3206.89 cm**-1
  69:      3212.04 cm**-1
  70:      3215.86 cm**-1
  71:      3216.32 cm**-1
  72:      3242.14 cm**-1
  73:      3243.16 cm**-1
  74:      3815.11 cm**-1

IR SPECTRUM
-----------

 Mode   freq       eps      Int      T**2         TX        TY        TZ
       cm**-1   L/(mol*cm) km/mol    a.u.
----------------------------------------------------------------------------
  6:     44.52   0.000182    0.92  0.001274  (-0.030935  0.001122 -0.017763)
  7:     46.75   0.000192    0.97  0.001284  (-0.029512  0.018213  0.009035)
  8:     74.60   0.000508    2.56  0.002123  ( 0.022401  0.008132  0.039436)
  9:     81.25   0.000309    1.56  0.001185  (-0.016111  0.030194  0.003768)
 10:    141.30   0.000673    3.40  0.001486  (-0.037857  0.000579 -0.007244)
 11:    218.46   0.000548    2.77  0.000782  (-0.009922  0.024819 -0.008234)
 12:    237.07   0.000285    1.44  0.000376  ( 0.001443  0.000379  0.019321)
 13:    261.68   0.000422    2.13  0.000503  (-0.019006 -0.008940  0.007866)
 14:    346.14   0.000413    2.09  0.000372  ( 0.003531 -0.002106 -0.018849)
 15:    393.17   0.035213  177.95  0.027949  ( 0.166740  0.009453 -0.007544)
 16:    398.66   0.001712    8.65  0.001340  (-0.018313  0.003108  0.031549)
 17:    419.71   0.000106    0.54  0.000079  (-0.008846 -0.000929  0.000192)
 18:    426.89   0.001910    9.65  0.001396  ( 0.016902  0.001871  0.033272)
 19:    453.55   0.002485   12.56  0.001710  ( 0.013327 -0.008160 -0.038287)
 20:    457.44   0.004339   21.93  0.002960  (-0.004886  0.000133 -0.054184)
 21:    507.79   0.005748   29.05  0.003533  ( 0.057791 -0.009738  0.009898)
 22:    548.66   0.000863    4.36  0.000491  ( 0.002823 -0.021645  0.003784)
 23:    556.47   0.002259   11.42  0.001267  ( 0.030537  0.018283  0.000083)
 24:    623.53   0.002237   11.31  0.001120  (-0.000965 -0.000186 -0.033446)
 25:    639.20   0.000252    1.27  0.000123  (-0.002342  0.009851 -0.004529)
 26:    654.49   0.000208    1.05  0.000099  ( 0.004203 -0.004780  0.007664)
 27:    726.19   0.002343   11.84  0.001007  ( 0.022811 -0.021887  0.002701)
 28:    749.37   0.004864   24.58  0.002025  ( 0.039359 -0.021815 -0.000585)
 29:    754.11   0.005661   28.61  0.002343  (-0.000353 -0.000994 -0.048388)
 30:    796.88   0.013329   67.36  0.005220  ( 0.068179 -0.023863 -0.001382)
 31:    831.75   0.001033    5.22  0.000387  (-0.015010 -0.000749  0.012714)
 32:    845.10   0.000010    0.05  0.000004  (-0.000941 -0.000005  0.001630)
 33:    856.07   0.001413    7.14  0.000515  ( 0.015146 -0.001567 -0.016832)
 34:    856.41   0.022324  112.81  0.008134  (-0.090088  0.000492 -0.004266)
 35:    890.47   0.019313   97.60  0.006768  (-0.000337 -0.003613 -0.082189)
 36:    894.78   0.003931   19.86  0.001371  (-0.020177  0.031036 -0.000696)
 37:    973.33   0.000148    0.75  0.000047  (-0.000306 -0.005966  0.003419)
 38:    983.19   0.000629    3.18  0.000200  (-0.000380  0.001853  0.014005)
 39:    999.98   0.000032    0.16  0.000010  ( 0.001336  0.000560  0.002829)
 40:   1002.25   0.000034    0.17  0.000010  (-0.002907 -0.001375 -0.000300)
 41:   1022.55   0.001058    5.34  0.000323  (-0.000045  0.001838  0.017871)
 42:   1032.75   0.000017    0.08  0.000005  (-0.000121  0.001071  0.001968)
 43:   1055.15   0.000176    0.89  0.000052  ( 0.000397  0.000727  0.007161)
 44:   1130.69   0.000830    4.19  0.000229  (-0.009896  0.006525  0.009405)
 45:   1137.94   0.007150   36.13  0.001961  ( 0.010493  0.040596  0.014231)
 46:   1139.52   0.074494  376.46  0.020401  ( 0.000526  0.003481  0.142787)
 47:   1191.02   0.045281  228.83  0.011864  (-0.000596 -0.006995 -0.108696)
 48:   1199.51   0.047070  237.87  0.012246  ( 0.000895 -0.008400  0.110338)
 49:   1215.02   0.001790    9.05  0.000460  (-0.000143 -0.004590 -0.020945)
 50:   1313.10   0.049114  248.20  0.011672  ( 0.000354 -0.012684 -0.107289)
 51:   1315.92   0.007333   37.06  0.001739  (-0.002644  0.008648 -0.040709)
 52:   1326.65   0.054807  276.97  0.012892  (-0.001472 -0.002051 -0.113515)
 53:   1333.75   0.005249   26.53  0.001228  ( 0.003616 -0.007206 -0.034104)
 54:   1381.02   0.006558   33.14  0.001482  (-0.017534 -0.034264 -0.000600)
 55:   1387.14   0.007656   38.69  0.001722  (-0.000317  0.000630  0.041497)
 56:   1399.91   0.306815  1550.52  0.068394  ( 0.001869  0.008798  0.261368)
 57:   1446.46   0.001260    6.37  0.000272  (-0.006520 -0.014308 -0.004957)
 58:   1484.29   0.005874   29.68  0.001235  (-0.003524 -0.011528 -0.033010)
 59:   1527.09   0.026757  135.22  0.005468  (-0.000232  0.001806  0.073922)
 60:   1567.49   0.018308   92.52  0.003645  ( 0.002165  0.002328 -0.060289)
 61:   1591.54   0.101516  513.02  0.019905  ( 0.070338  0.122209 -0.004736)
 62:   1643.37   0.020306  102.62  0.003856  ( 0.020578  0.017882  0.055793)
 63:   1652.04   0.092333  466.61  0.017441  ( 0.008382  0.004430 -0.131725)
 64:   1660.15   0.024147  122.03  0.004539  (-0.029422 -0.060594 -0.001305)
 65:   1674.50   0.015666   79.17  0.002920  (-0.001381 -0.010075 -0.053068)
 66:   3188.80   0.002755   13.92  0.000270  ( 0.000399  0.002035  0.016289)
 67:   3198.51   0.001132    5.72  0.000110  (-0.001180  0.003105  0.009971)
 68:   3206.89   0.000432    2.18  0.000042  ( 0.001972 -0.006173  0.000080)
 69:   3212.04   0.000231    1.17  0.000022  (-0.002112  0.001959 -0.003764)
 70:   3215.86   0.001392    7.04  0.000135  (-0.003003 -0.010332  0.004397)
 71:   3216.32   0.000646    3.27  0.000063  ( 0.001645  0.001668  0.007564)
 72:   3242.14   0.000531    2.68  0.000051  (-0.002412 -0.004257 -0.005215)
 73:   3243.16   0.000564    2.85  0.000054  ( 0.002108  0.003708 -0.006006)
 74:   3815.11   0.053439  270.06  0.004371  (-0.002047  0.039309  0.053120)

--------------------------
THERMOCHEMISTRY AT 298.15K
--------------------------

Temperature         ... 298.15 K
Pressure            ... 1.00 atm
Total Mass          ... 215.21 AMU

Throughout the following assumptions are being made:
  (1) The electronic state is orbitally nondegenerate
  (2) There are no thermally accessible electronically excited states
  (3) Hindered rotations indicated by low frequency modes are not
      treated as such but are treated as vibrations and this may
      cause some error
  (4) All equations used are the standard statistical mechanics
      equations for an ideal gas
  (5) All vibrations are strictly harmonic

freq.      44.52  E(vib)   ...       0.53
freq.      46.75  E(vib)   ...       0.53
freq.      74.60  E(vib)   ...       0.49
freq.      81.25  E(vib)   ...       0.48
freq.     141.30  E(vib)   ...       0.41
freq.     218.46  E(vib)   ...       0.33
freq.     237.07  E(vib)   ...       0.32
freq.     261.68  E(vib)   ...       0.30
freq.     346.14  E(vib)   ...       0.23
freq.     393.17  E(vib)   ...       0.20
freq.     398.66  E(vib)   ...       0.19
freq.     419.71  E(vib)   ...       0.18
freq.     426.89  E(vib)   ...       0.18
freq.     453.55  E(vib)   ...       0.16
freq.     457.44  E(vib)   ...       0.16
freq.     507.79  E(vib)   ...       0.14
freq.     548.66  E(vib)   ...       0.12
freq.     556.47  E(vib)   ...       0.12
freq.     623.53  E(vib)   ...       0.09
freq.     639.20  E(vib)   ...       0.09
freq.     654.49  E(vib)   ...       0.08
freq.     726.19  E(vib)   ...       0.06
freq.     749.37  E(vib)   ...       0.06
freq.     754.11  E(vib)   ...       0.06
freq.     796.88  E(vib)   ...       0.05
freq.     831.75  E(vib)   ...       0.04
freq.     845.10  E(vib)   ...       0.04
freq.     856.07  E(vib)   ...       0.04
freq.     856.41  E(vib)   ...       0.04
freq.     890.47  E(vib)   ...       0.04
freq.     894.78  E(vib)   ...       0.03
freq.     973.33  E(vib)   ...       0.03
freq.     983.19  E(vib)   ...       0.02
freq.     999.98  E(vib)   ...       0.02
freq.    1002.25  E(vib)   ...       0.02
freq.    1022.55  E(vib)   ...       0.02
freq.    1032.75  E(vib)   ...       0.02
freq.    1055.15  E(vib)   ...       0.02
freq.    1130.69  E(vib)   ...       0.01
freq.    1137.94  E(vib)   ...       0.01
freq.    1139.52  E(vib)   ...       0.01
freq.    1191.02  E(vib)   ...       0.01
freq.    1199.51  E(vib)   ...       0.01
freq.    1215.02  E(vib)   ...       0.01
freq.    1313.10  E(vib)   ...       0.01
freq.    1315.92  E(vib)   ...       0.01
freq.    1326.65  E(vib)   ...       0.01
freq.    1333.75  E(vib)   ...       0.01
freq.    1381.02  E(vib)   ...       0.01
freq.    1387.14  E(vib)   ...       0.00
freq.    1399.91  E(vib)   ...       0.00
freq.    1446.46  E(vib)   ...       0.00
freq.    1484.29  E(vib)   ...       0.00
freq.    1527.09  E(vib)   ...       0.00
freq.    1567.49  E(vib)   ...       0.00
freq.    1591.54  E(vib)   ...       0.00
freq.    1643.37  E(vib)   ...       0.00
freq.    1652.04  E(vib)   ...       0.00
freq.    1660.15  E(vib)   ...       0.00
freq.    1674.50  E(vib)   ...       0.00
freq.    3188.80  E(vib)   ...       0.00
freq.    3198.51  E(vib)   ...       0.00
freq.    3206.89  E(vib)   ...       0.00
freq.    3212.04  E(vib)   ...       0.00
freq.    3215.86  E(vib)   ...       0.00
freq.    3216.32  E(vib)   ...       0.00
freq.    3242.14  E(vib)   ...       0.00
freq.    3243.16  E(vib)   ...       0.00
freq.    3815.11  E(vib)   ...       0.00

------------
INNER ENERGY
------------

The inner energy is: U= E(el) + E(ZPE) + E(vib) + E(rot) + E(trans)
    E(el)   - is the total energy from the electronic structure calculation
              = E(kin-el) + E(nuc-el) + E(el-el) + E(nuc-nuc)
    E(ZPE)  - the the zero temperature vibrational energy from the frequency calculation
    E(vib)  - the the finite temperature correction to E(ZPE) due to population
              of excited vibrational states
    E(rot)  - is the rotational thermal energy
    E(trans)- is the translational thermal energy

Summary of contributions to the inner energy U:
Electronic energy                ...   -742.52199341 Eh
Zero point energy                ...      0.18922139 Eh     118.74 kcal/mol
Thermal vibrational correction   ...      0.00971449 Eh       6.10 kcal/mol
Thermal rotational correction    ...      0.00141627 Eh       0.89 kcal/mol
Thermal translational correction ...      0.00141627 Eh       0.89 kcal/mol
-----------------------------------------------------------------------
Total thermal energy                   -742.32022499 Eh

Summary of corrections to the electronic energy:
(perhaps to be used in another calculation)
Total thermal correction                  0.01254703 Eh       7.87 kcal/mol
Non-thermal (ZPE) correction              0.18922139 Eh     118.74 kcal/mol
-----------------------------------------------------------------------
Total correction                          0.20176842 Eh     126.61 kcal/mol

--------
ENTHALPY
--------

The enthalpy is H = U + kB*T
                kB is Boltzmann's constant
Total free energy                 ...   -742.32022499 Eh
Thermal Enthalpy correction       ...      0.00094421 Eh       0.59 kcal/mol
-----------------------------------------------------------------------
Total Enthalpy                    ...   -742.31928078 Eh

Note: Only C1 symmetry has been detected, increase convergence thresholds
      if your molecule has a higher symmetry. Symmetry factor of 1.0 is
      used for the rotational entropy correction.

Note: Rotational entropy computed according to Herzberg
Infrared and Raman Spectra, Chapter V,1, Van Nostrand Reinhold, 1945
Point Group:  C1, Symmetry Number:   1
Rotational constants in cm-1:     0.078878     0.006806     0.006341

Vibrational entropy computed according to the QRRHO of S. Grimme
Chem.Eur.J. 2012 18 9955

-------
ENTROPY
-------

The entropy contributions are T*S = T*(S(el)+S(vib)+S(rot)+S(trans))
     S(el)   - electronic entropy
     S(vib)  - vibrational entropy
     S(rot)  - rotational entropy
     S(trans)- translational entropy
The entropies will be listed as multiplied by the temperature to get
units of energy

Electronic entropy                ...      0.00000000 Eh      0.00 kcal/mol
Vibrational entropy               ...      0.01649174 Eh     10.35 kcal/mol
Rotational entropy                ...      0.01545470 Eh      9.70 kcal/mol
Translational entropy             ...      0.01995672 Eh     12.52 kcal/mol
-----------------------------------------------------------------------

                             ****ORCA TERMINATED NORMALLY****
TOTAL RUN TIME: 0 days 0 hours 13 minutes 3 seconds 290 msec
