                         Program Version 5.0.4 -  RELEASE  -
|  1> %pal nprocs 24 end
|  2> %maxcore 3500
|  3> ! PBE0 D3BJ def2-TZVP TightSCF OPT FREQ TightOpt
|  4> ! CPCM(dmso)
|  5> %scf
|  6> MaxIter 800
|  7> end
|  8> %geom
|  9> MaxIter 800
| 10> MaxStep 0.2
| 11> end
| 12> *xyz -1 1
| 13>
| 14> C      -0.00135900     -0.55227400     -1.63046000
| 15> C       0.11135100      0.66679000     -0.92963800
| 16> C      -0.10751700     -1.71524500     -0.83901200
| 17> H       0.17231700      1.59793900     -1.48277800
| 18> H      -0.17278800     -2.68521900     -1.32022100
| 19> C       0.11235300      0.72834700      0.44001300
| 20> C      -0.09705000     -1.67406600      0.53121300
| 21> H       0.18494400      1.68931200      0.94098800
| 22> H      -0.16477600     -2.59478600      1.10342500
| 23> C       0.01095500     -0.44377100      1.26124800
| 24> O       0.01636200     -0.39660000      2.52486100
| 25> C      -0.00848200     -0.60743500     -3.07670500
| 26> C       0.41799100      0.48464300     -3.86407700
| 27> C      -0.44247800     -1.75714500     -3.77270700
| 28> C       0.40883900      0.43974300     -5.23695300
| 29> C      -0.45006300     -1.81790800     -5.14481000
| 30> C      -0.02535100     -0.71555900     -5.88284000
| 31> H       0.78681900      1.38210900     -3.38505500
| 32> H      -0.80482200     -2.61502600     -3.22177000
| 33> H       0.74832700      1.28543500     -5.81961300
| 34> H      -0.79533500     -2.70610200     -5.65648800
| 35> N      -0.03553900     -0.77065500     -7.30943900
| 36> O       0.30264200      0.22421100     -7.93960500
| 37> O      -0.38241100     -1.81143500     -7.85499700
| 38> *
| 39>
| 40>                          ****END OF INPUT****
 Total Charge           Charge          ....   -1
 Multiplicity           Mult            ....    1
 Number of Electrons    NEL             ....  112
Dispersion correction           -0.026875700
FINAL SINGLE POINT ENERGY      -742.044104761079
Dispersion correction            ... done
Dispersion correction           -0.026871406
FINAL SINGLE POINT ENERGY      -742.044105691584
Dispersion correction            ... done
                    ***********************HURRAY********************

CARTESIAN COORDINATES (ANGSTROEM)
---------------------------------
  C     -0.001570   -0.552051   -1.629884
  C      0.112232    0.666946   -0.928708
  C     -0.108374   -1.715270   -0.838374
  H      0.174091    1.598150   -1.481526
  H     -0.174531   -2.685110   -1.319558
  C      0.113573    0.728362    0.441201
  C     -0.097636   -1.674307    0.532071
  H      0.187105    1.689235    0.942017
  H     -0.165886   -2.595109    1.103929
  C      0.011327   -0.443959    1.262513
  O      0.016878   -0.396853    2.526217
  C     -0.008985   -0.607108   -3.076738
  C      0.416531    0.485451   -3.864518
  C     -0.442362   -1.757320   -3.772991
  C      0.407529    0.440323   -5.237741
  C     -0.449825   -1.818157   -5.145418
  C     -0.025718   -0.715501   -5.883850
  H      0.784287    1.383489   -3.385886
  H     -0.804105   -2.615535   -3.222316
  H      0.746272    1.286305   -5.820297
  H     -0.794473   -2.706581   -5.656977
  N     -0.035490   -0.770926   -7.310930
  O      0.304805    0.223206   -7.941250
  O     -0.380747   -1.812376   -7.856404

 Multiplicity           Mult            ....    1
 Number of Electrons    NEL             ....  112
 Basis Dimension        Dim             ....  544

ORBITAL ENERGIES
----------------

  NO   OCC          E(Eh)            E(eV)
   0   2.0000     -19.229150      -523.2518
   1   2.0000     -19.229107      -523.2506
   2   2.0000     -19.130904      -520.5784
   3   2.0000     -14.614014      -397.6675
   4   2.0000     -10.270587      -279.4769
   5   2.0000     -10.258205      -279.1399
   6   2.0000     -10.251659      -278.9618
   7   2.0000     -10.240590      -278.6606
   8   2.0000     -10.240496      -278.6581
   9   2.0000     -10.229284      -278.3530
  10   2.0000     -10.229195      -278.3506
  11   2.0000     -10.217311      -278.0272
  12   2.0000     -10.217211      -278.0244
  13   2.0000     -10.215698      -277.9833
  14   2.0000     -10.197707      -277.4937
  15   2.0000     -10.197691      -277.4933
  16   2.0000      -1.260383       -34.2968
  17   2.0000      -1.078025       -29.3346
  18   2.0000      -0.999024       -27.1848
  19   2.0000      -0.910939       -24.7879
  20   2.0000      -0.866402       -23.5760
  21   2.0000      -0.825172       -22.4541
  22   2.0000      -0.784879       -21.3576
  23   2.0000      -0.756676       -20.5902
  24   2.0000      -0.752756       -20.4835
  25   2.0000      -0.689437       -18.7605
  26   2.0000      -0.644745       -17.5444
  27   2.0000      -0.615235       -16.7414
  28   2.0000      -0.601494       -16.3675
  29   2.0000      -0.582023       -15.8377
  30   2.0000      -0.577848       -15.7240
  31   2.0000      -0.553557       -15.0631
  32   2.0000      -0.534651       -14.5486
  33   2.0000      -0.527503       -14.3541
  34   2.0000      -0.487367       -13.2619
  35   2.0000      -0.474279       -12.9058
  36   2.0000      -0.449957       -12.2439
  37   2.0000      -0.443675       -12.0730
  38   2.0000      -0.442843       -12.0504
  39   2.0000      -0.442154       -12.0316
  40   2.0000      -0.416750       -11.3403
  41   2.0000      -0.407797       -11.0967
  42   2.0000      -0.393460       -10.7066
  43   2.0000      -0.389692       -10.6041
  44   2.0000      -0.367548       -10.0015
  45   2.0000      -0.362685        -9.8691
  46   2.0000      -0.338111        -9.2005
  47   2.0000      -0.333407        -9.0725
  48   2.0000      -0.330328        -8.9887
  49   2.0000      -0.328921        -8.9504
  50   2.0000      -0.307216        -8.3598
  51   2.0000      -0.281370        -7.6565
  52   2.0000      -0.276273        -7.5178
  53   2.0000      -0.260079        -7.0771
  54   2.0000      -0.232262        -6.3202
  55   2.0000      -0.185128        -5.0376
  56   0.0000      -0.086900        -2.3647
  57   0.0000      -0.017319        -0.4713
  58   0.0000      -0.006161        -0.1676
  59   0.0000       0.012841         0.3494
  60   0.0000       0.060714         1.6521

MULLIKEN ATOMIC CHARGES
-----------------------
   0 C :    0.106072
   1 C :   -0.211752
   2 C :   -0.211706
   3 H :    0.133412
   4 H :    0.133880
   5 C :   -0.306736
   6 C :   -0.307067
   7 H :    0.110211
   8 H :    0.110024
   9 C :    0.287080
  10 O :   -0.602184
  11 C :    0.214923
  12 C :   -0.217679
  13 C :   -0.216821
  14 C :   -0.210306
  15 C :   -0.210600
  16 C :    0.112841
  17 H :    0.144721
  18 H :    0.144844
  19 H :    0.161947
  20 H :    0.161929
  21 N :    0.463161
  22 O :   -0.395109
  23 O :   -0.395084
Sum of atomic charges:   -1.0000000

LOEWDIN ATOMIC CHARGES
----------------------
   0 C :   -0.163616
   1 C :   -0.128400
   2 C :   -0.128368
   3 H :    0.152651
   4 H :    0.152762
   5 C :   -0.171425
   6 C :   -0.171489
   7 H :    0.141184
   8 H :    0.141182
   9 C :   -0.416452
  10 O :   -0.135461
  11 C :   -0.093435
  12 C :   -0.103218
  13 C :   -0.103186
  14 C :   -0.105118
  15 C :   -0.105268
  16 C :   -0.202008
  17 H :    0.158350
  18 H :    0.158431
  19 H :    0.161841
  20 H :    0.161846
  21 N :   -0.032500
  22 O :   -0.084205
  23 O :   -0.084098

  Mayer bond orders larger than 0.100000
B(  0-C ,  1-C ) :   1.2623 B(  0-C ,  2-C ) :   1.2620 B(  0-C , 11-C ) :   1.0448
B(  1-C ,  3-H ) :   0.9485 B(  1-C ,  5-C ) :   1.4969 B(  2-C ,  4-H ) :   0.9482
B(  2-C ,  6-C ) :   1.4969 B(  5-C ,  7-H ) :   0.9873 B(  5-C ,  9-C ) :   1.1718
B(  6-C ,  8-H ) :   0.9873 B(  6-C ,  9-C ) :   1.1717 B(  9-C , 10-O ) :   1.7339
B( 11-C , 12-C ) :   1.2783 B( 11-C , 13-C ) :   1.2783 B( 12-C , 14-C ) :   1.5300
B( 12-C , 17-H ) :   0.9627 B( 13-C , 15-C ) :   1.5298 B( 13-C , 18-H ) :   0.9626
B( 14-C , 16-C ) :   1.3098 B( 14-C , 19-H ) :   0.9500 B( 15-C , 16-C ) :   1.3094
B( 15-C , 20-H ) :   0.9501 B( 16-C , 21-N ) :   1.0841 B( 21-N , 22-O ) :   1.5661
B( 21-N , 23-O ) :   1.5659 B( 22-O , 23-O ) :   0.1528

Dispersion correction           -0.026869971
FINAL SINGLE POINT ENERGY      -742.044104804018

DIPOLE MOMENT
-------------
                                X             Y             Z
Electronic contribution:     -0.05411      -0.36041      -9.43053
Nuclear contribution   :      0.03820       0.22492       5.78148
                        -----------------------------------------
Total Dipole Moment    :     -0.01591      -0.13549      -3.64906
                        -----------------------------------------
Magnitude (a.u.)       :      3.65161
Magnitude (Debye)      :      9.28165

Dispersion correction in the Hessian             ... done   (      0.3 sec)

VIBRATIONAL FREQUENCIES
-----------------------

Scaling factor for frequencies =  1.000000000  (already applied!)

   0:         0.00 cm**-1
   1:         0.00 cm**-1
   2:         0.00 cm**-1
   3:         0.00 cm**-1
   4:         0.00 cm**-1
   5:         0.00 cm**-1
   6:        38.85 cm**-1
   7:        41.54 cm**-1
   8:        73.67 cm**-1
   9:        92.96 cm**-1
  10:       127.14 cm**-1
  11:       216.31 cm**-1
  12:       243.72 cm**-1
  13:       251.24 cm**-1
  14:       324.45 cm**-1
  15:       401.07 cm**-1
  16:       419.92 cm**-1
  17:       423.84 cm**-1
  18:       460.24 cm**-1
  19:       470.73 cm**-1
  20:       491.43 cm**-1
  21:       536.51 cm**-1
  22:       551.54 cm**-1
  23:       625.67 cm**-1
  24:       634.04 cm**-1
  25:       649.84 cm**-1
  26:       722.22 cm**-1
  27:       751.08 cm**-1
  28:       753.55 cm**-1
  29:       797.45 cm**-1
  30:       803.76 cm**-1
  31:       829.65 cm**-1
  32:       848.71 cm**-1
  33:       858.62 cm**-1
  34:       880.34 cm**-1
  35:       883.53 cm**-1
  36:       973.87 cm**-1
  37:       977.54 cm**-1
  38:       993.16 cm**-1
  39:       995.15 cm**-1
  40:       998.48 cm**-1
  41:      1020.87 cm**-1
  42:      1034.39 cm**-1
  43:      1119.54 cm**-1
  44:      1131.51 cm**-1
  45:      1140.76 cm**-1
  46:      1175.91 cm**-1
  47:      1229.23 cm**-1
  48:      1280.68 cm**-1
  49:      1308.47 cm**-1
  50:      1312.90 cm**-1
  51:      1330.37 cm**-1
  52:      1360.06 cm**-1
  53:      1380.82 cm**-1
  54:      1433.75 cm**-1
  55:      1471.16 cm**-1
  56:      1500.84 cm**-1
  57:      1527.53 cm**-1
  58:      1543.86 cm**-1
  59:      1557.01 cm**-1
  60:      1580.81 cm**-1
  61:      1618.36 cm**-1
  62:      1629.68 cm**-1
  63:      1671.43 cm**-1
  64:      3168.96 cm**-1
  65:      3169.48 cm**-1
  66:      3190.37 cm**-1
  67:      3193.43 cm**-1
  68:      3219.28 cm**-1
  69:      3220.99 cm**-1
  70:      3238.17 cm**-1
  71:      3238.77 cm**-1

IR SPECTRUM
-----------

 Mode   freq       eps      Int      T**2         TX        TY        TZ
       cm**-1   L/(mol*cm) km/mol    a.u.
----------------------------------------------------------------------------
  6:     38.85   0.001065    5.38  0.008557  (-0.000178  0.004775  0.092382)
  7:     41.54   0.002407   12.17  0.018088  ( 0.130129 -0.033728  0.004086)
  8:     73.67   0.000749    3.78  0.003173  (-0.001736  0.004111  0.056149)
  9:     92.96   0.001325    6.69  0.004447  (-0.024355 -0.062005  0.003031)
 10:    127.14   0.000746    3.77  0.001831  ( 0.007539  0.042092 -0.001472)
 11:    216.31   0.001455    7.35  0.002099  ( 0.044667 -0.010202 -0.000401)
 12:    243.72   0.010671   53.93  0.013664  (-0.002149 -0.004708 -0.116776)
 13:    251.24   0.000433    2.19  0.000538  ( 0.022196  0.002714 -0.006172)
 14:    324.45   0.000185    0.94  0.000178  ( 0.012706  0.004093 -0.000123)
 15:    401.07   0.000844    4.27  0.000657  ( 0.000352  0.025615 -0.000722)
 16:    419.92   0.003804   19.22  0.002827  (-0.000204 -0.002389 -0.053114)
 17:    423.84   0.001797    9.08  0.001323  ( 0.000106 -0.001391 -0.036344)
 18:    460.24   0.032888  166.20  0.022299  ( 0.001213  0.005268  0.149232)
 19:    470.73   0.002808   14.19  0.001861  ( 0.026958 -0.033663  0.001228)
 20:    491.43   0.005683   28.72  0.003609  (-0.060040  0.001987  0.000162)
 21:    536.51   0.001074    5.43  0.000624  (-0.019896 -0.015117  0.000211)
 22:    551.54   0.000727    3.67  0.000411  (-0.005213 -0.019575  0.000872)
 23:    625.67   0.024352  123.06  0.012146  (-0.000413 -0.004511 -0.110115)
 24:    634.04   0.000342    1.73  0.000168  ( 0.000860  0.012450 -0.003534)
 25:    649.84   0.000073    0.37  0.000035  (-0.004980 -0.002219 -0.002350)
 26:    722.22   0.001607    8.12  0.000694  ( 0.020223 -0.016876  0.000659)
 27:    751.08   0.015632   79.00  0.006495  ( 0.000109 -0.003024 -0.080533)
 28:    753.55   0.008762   44.28  0.003629  ( 0.057434 -0.018120  0.001284)
 29:    797.45   0.008038   40.62  0.003146  ( 0.053745 -0.016015  0.000740)
 30:    803.76   0.005362   27.10  0.002082  (-0.000063 -0.001759 -0.045591)
 31:    829.65   0.004706   23.78  0.001770  ( 0.000745  0.001288  0.042045)
 32:    848.71   0.008464   42.78  0.003112  ( 0.000847  0.002080  0.055742)
 33:    858.62   0.030260  152.92  0.010998  (-0.103756  0.015248  0.000058)
 34:    880.34   0.002248   11.36  0.000797  ( 0.018704 -0.021133  0.000740)
 35:    883.53   0.000030    0.15  0.000011  (-0.000370 -0.000034 -0.003224)
 36:    973.87   0.000161    0.81  0.000052  ( 0.003864  0.006044  0.000274)
 37:    977.54   0.000287    1.45  0.000092  (-0.000173 -0.000294 -0.009568)
 38:    993.16   0.008992   45.44  0.002825  (-0.000333 -0.001554 -0.053130)
 39:    995.15   0.000191    0.96  0.000060  ( 0.000031 -0.000129  0.007730)
 40:    998.48   0.000106    0.53  0.000033  (-0.004931 -0.002560 -0.001454)
 41:   1020.87   0.005182   26.19  0.001584  (-0.000292 -0.001758 -0.039759)
 42:   1034.39   0.000000    0.00  0.000000  (-0.000065  0.000215  0.000219)
 43:   1119.54   0.003319   16.77  0.000925  ( 0.000899  0.025784  0.016107)
 44:   1131.51   0.710175  3588.93  0.195862  (-0.002832 -0.017794 -0.442196)
 45:   1140.76   0.005817   29.40  0.001591  ( 0.011607  0.034532 -0.016251)
 46:   1175.91   0.124047  626.88  0.032920  (-0.000782 -0.005941 -0.181338)
 47:   1229.23   0.083902  424.00  0.021300  (-0.000711 -0.005527 -0.145839)
 48:   1280.68   0.000245    1.24  0.000060  (-0.000365 -0.003742  0.006755)
 49:   1308.47   1.403391  7092.16  0.334701  ( 0.003141  0.022655  0.578081)
 50:   1312.90   0.005338   26.98  0.001269  (-0.001733 -0.029986  0.019147)
 51:   1330.37   0.000060    0.31  0.000014  (-0.001808 -0.000883  0.003184)
 52:   1360.06   0.274721  1388.33  0.063034  (-0.001336 -0.009688 -0.250876)
 53:   1380.82   0.006523   32.96  0.001474  ( 0.009966  0.037027  0.001957)
 54:   1433.75   0.043465  219.65  0.009460  ( 0.000408  0.003772  0.097190)
 55:   1471.16   0.000099    0.50  0.000021  ( 0.000925  0.004182 -0.001638)
 56:   1500.84   0.000115    0.58  0.000024  ( 0.003857 -0.001551 -0.002589)
 57:   1527.53   0.121153  612.26  0.024751  (-0.001081 -0.007287 -0.157151)
 58:   1543.86   0.073908  373.50  0.014939  (-0.031075 -0.117981  0.007339)
 59:   1557.01   0.037633  190.18  0.007543  ( 0.033234  0.080203 -0.002387)
 60:   1580.81   0.171848  868.45  0.033924  (-0.000888 -0.007163 -0.184044)
 61:   1618.36   0.405476  2049.11  0.078187  (-0.001103 -0.009637 -0.279451)
 62:   1629.68   0.027002  136.46  0.005171  (-0.022681 -0.068234 -0.000456)
 63:   1671.43   0.002307   11.66  0.000431  (-0.000004 -0.000648 -0.020744)
 64:   3168.96   0.007294   36.86  0.000718  ( 0.001281  0.010953  0.024427)
 65:   3169.48   0.008139   41.13  0.000801  (-0.001018 -0.009713  0.026571)
 66:   3190.37   0.008028   40.57  0.000785  (-0.000952 -0.027406 -0.005769)
 67:   3193.43   0.004102   20.73  0.000401  (-0.000263 -0.008402  0.018172)
 68:   3219.28   0.001554    7.85  0.000151  (-0.003149 -0.010361 -0.005779)
 69:   3220.99   0.001608    8.13  0.000156  ( 0.003418  0.010740 -0.005365)
 70:   3238.17   0.000077    0.39  0.000007  ( 0.000853  0.002321 -0.001161)
 71:   3238.77   0.000520    2.63  0.000050  ( 0.000091  0.000356  0.007071)

--------------------------
THERMOCHEMISTRY AT 298.15K
--------------------------

Temperature         ... 298.15 K
Pressure            ... 1.00 atm
Total Mass          ... 214.20 AMU

Throughout the following assumptions are being made:
  (1) The electronic state is orbitally nondegenerate
  (2) There are no thermally accessible electronically excited states
  (3) Hindered rotations indicated by low frequency modes are not
      treated as such but are treated as vibrations and this may
      cause some error
  (4) All equations used are the standard statistical mechanics
      equations for an ideal gas
  (5) All vibrations are strictly harmonic

freq.      38.85  E(vib)   ...       0.54
freq.      41.54  E(vib)   ...       0.54
freq.      73.67  E(vib)   ...       0.49
freq.      92.96  E(vib)   ...       0.47
freq.     127.14  E(vib)   ...       0.43
freq.     216.31  E(vib)   ...       0.34
freq.     243.72  E(vib)   ...       0.31
freq.     251.24  E(vib)   ...       0.30
freq.     324.45  E(vib)   ...       0.25
freq.     401.07  E(vib)   ...       0.19
freq.     419.92  E(vib)   ...       0.18
freq.     423.84  E(vib)   ...       0.18
freq.     460.24  E(vib)   ...       0.16
freq.     470.73  E(vib)   ...       0.15
freq.     491.43  E(vib)   ...       0.14
freq.     536.51  E(vib)   ...       0.12
freq.     551.54  E(vib)   ...       0.12
freq.     625.67  E(vib)   ...       0.09
freq.     634.04  E(vib)   ...       0.09
freq.     649.84  E(vib)   ...       0.08
freq.     722.22  E(vib)   ...       0.07
freq.     751.08  E(vib)   ...       0.06
freq.     753.55  E(vib)   ...       0.06
freq.     797.45  E(vib)   ...       0.05
freq.     803.76  E(vib)   ...       0.05
freq.     829.65  E(vib)   ...       0.04
freq.     848.71  E(vib)   ...       0.04
freq.     858.62  E(vib)   ...       0.04
freq.     880.34  E(vib)   ...       0.04
freq.     883.53  E(vib)   ...       0.04
freq.     973.87  E(vib)   ...       0.03
freq.     977.54  E(vib)   ...       0.03
freq.     993.16  E(vib)   ...       0.02
freq.     995.15  E(vib)   ...       0.02
freq.     998.48  E(vib)   ...       0.02
freq.    1020.87  E(vib)   ...       0.02
freq.    1034.39  E(vib)   ...       0.02
freq.    1119.54  E(vib)   ...       0.01
freq.    1131.51  E(vib)   ...       0.01
freq.    1140.76  E(vib)   ...       0.01
freq.    1175.91  E(vib)   ...       0.01
freq.    1229.23  E(vib)   ...       0.01
freq.    1280.68  E(vib)   ...       0.01
freq.    1308.47  E(vib)   ...       0.01
freq.    1312.90  E(vib)   ...       0.01
freq.    1330.37  E(vib)   ...       0.01
freq.    1360.06  E(vib)   ...       0.01
freq.    1380.82  E(vib)   ...       0.01
freq.    1433.75  E(vib)   ...       0.00
freq.    1471.16  E(vib)   ...       0.00
freq.    1500.84  E(vib)   ...       0.00
freq.    1527.53  E(vib)   ...       0.00
freq.    1543.86  E(vib)   ...       0.00
freq.    1557.01  E(vib)   ...       0.00
freq.    1580.81  E(vib)   ...       0.00
freq.    1618.36  E(vib)   ...       0.00
freq.    1629.68  E(vib)   ...       0.00
freq.    1671.43  E(vib)   ...       0.00
freq.    3168.96  E(vib)   ...       0.00
freq.    3169.48  E(vib)   ...       0.00
freq.    3190.37  E(vib)   ...       0.00
freq.    3193.43  E(vib)   ...       0.00
freq.    3219.28  E(vib)   ...       0.00
freq.    3220.99  E(vib)   ...       0.00
freq.    3238.17  E(vib)   ...       0.00
freq.    3238.77  E(vib)   ...       0.00

------------
INNER ENERGY
------------

The inner energy is: U= E(el) + E(ZPE) + E(vib) + E(rot) + E(trans)
    E(el)   - is the total energy from the electronic structure calculation
              = E(kin-el) + E(nuc-el) + E(el-el) + E(nuc-nuc)
    E(ZPE)  - the the zero temperature vibrational energy from the frequency calculation
    E(vib)  - the the finite temperature correction to E(ZPE) due to population
              of excited vibrational states
    E(rot)  - is the rotational thermal energy
    E(trans)- is the translational thermal energy

Summary of contributions to the inner energy U:
Electronic energy                ...   -742.04410480 Eh
Zero point energy                ...      0.17574049 Eh     110.28 kcal/mol
Thermal vibrational correction   ...      0.00948668 Eh       5.95 kcal/mol
Thermal rotational correction    ...      0.00141627 Eh       0.89 kcal/mol
Thermal translational correction ...      0.00141627 Eh       0.89 kcal/mol
-----------------------------------------------------------------------
Total thermal energy                   -741.85604510 Eh

Summary of corrections to the electronic energy:
(perhaps to be used in another calculation)
Total thermal correction                  0.01231922 Eh       7.73 kcal/mol
Non-thermal (ZPE) correction              0.17574049 Eh     110.28 kcal/mol
-----------------------------------------------------------------------
Total correction                          0.18805971 Eh     118.01 kcal/mol

--------
ENTHALPY
--------

The enthalpy is H = U + kB*T
                kB is Boltzmann's constant
Total free energy                 ...   -741.85604510 Eh
Thermal Enthalpy correction       ...      0.00094421 Eh       0.59 kcal/mol
-----------------------------------------------------------------------
Total Enthalpy                    ...   -741.85510089 Eh

Note: Only C1 symmetry has been detected, increase convergence thresholds
      if your molecule has a higher symmetry. Symmetry factor of 1.0 is
      used for the rotational entropy correction.

Note: Rotational entropy computed according to Herzberg
Infrared and Raman Spectra, Chapter V,1, Van Nostrand Reinhold, 1945
Point Group:  C1, Symmetry Number:   1
Rotational constants in cm-1:     0.078996     0.006895     0.006359

Vibrational entropy computed according to the QRRHO of S. Grimme
Chem.Eur.J. 2012 18 9955

-------
ENTROPY
-------

The entropy contributions are T*S = T*(S(el)+S(vib)+S(rot)+S(trans))
     S(el)   - electronic entropy
     S(vib)  - vibrational entropy
     S(rot)  - rotational entropy
     S(trans)- translational entropy
The entropies will be listed as multiplied by the temperature to get
units of energy

Electronic entropy                ...      0.00000000 Eh      0.00 kcal/mol
Vibrational entropy               ...      0.01626484 Eh     10.21 kcal/mol
Rotational entropy                ...      0.01544656 Eh      9.69 kcal/mol
Translational entropy             ...      0.01995007 Eh     12.52 kcal/mol
-----------------------------------------------------------------------
Final entropy term                ...      0.05166147 Eh     32.42 kcal/mol

In case the symmetry of your molecule has not been determined correctly

                             ****ORCA TERMINATED NORMALLY****
TOTAL RUN TIME: 0 days 0 hours 12 minutes 44 seconds 192 msec
