                         Program Version 5.0.4 -  RELEASE  -
|  1> %pal nprocs 24 end
|  2> %maxcore 3500
|  3> ! PBE0 D3BJ def2-TZVP TightSCF OPT FREQ TightOpt
|  4> ! CPCM(dmso)
|  5> %scf
|  6> MaxIter 800
|  7> end
|  8> %geom
|  9> MaxIter 800
| 10> MaxStep 0.2
| 11> end
| 12> *xyz 0 1
| 13>
| 14> C       0.10337100     -0.48846700     -1.61535400
| 15> C      -0.40861100      0.61204700     -0.92705200
| 16> C       0.48096300     -1.60138300     -0.85998100
| 17> H      -0.73329200      1.48741900     -1.47841500
| 18> H       0.90047200     -2.46903500     -1.35726600
| 19> C      -0.53702000      0.60964500      0.45167200
| 20> C       0.35722700     -1.61892800      0.51800900
| 21> H      -0.94560300      1.47475100      0.96486300
| 22> H       0.66380700     -2.48685300      1.09083800
| 23> C      -0.15110400     -0.50818600      1.18307000
| 24> O      -0.24869800     -0.56481600      2.53370900
| 25> H      -0.60422600      0.26663600      2.86860400
| 26> C       0.24254800     -0.47277200     -3.08170000
| 27> C       0.54451400      0.70857400     -3.76793300
| 28> C       0.07907400     -1.62863300     -3.84060300
| 29> C       0.67424100      0.73156300     -5.14145400
| 30> C       0.20752200     -1.62475700     -5.22312000
| 31> C       0.50589700     -0.43714200     -5.88370200
| 32> H       0.70029900      1.62721200     -3.21317900
| 33> H      -0.17451200     -2.56142500     -3.34889500
| 34> H       0.91747900      1.65174800     -5.66074500
| 35> H       0.06326400     -2.54637500     -5.77120200
| 36> O       0.64917800     -0.32181000     -7.22276100
| 37> C       0.50791100     -1.49268300     -8.00388500
| 38> H       1.25044200     -2.24633000     -7.72478200
| 39> H      -0.49463900     -1.91894100     -7.90284100
| 40> H       0.66967400     -1.18930800     -9.03643200
| 41> *
| 42>
| 43>                          ****END OF INPUT****
 Total Charge           Charge          ....    0
 Multiplicity           Mult            ....    1
 Number of Electrons    NEL             ....  106
Dispersion correction           -0.027915787
FINAL SINGLE POINT ENERGY      -652.576296561828
Dispersion correction            ... done
Dispersion correction           -0.027912487
FINAL SINGLE POINT ENERGY      -652.576298395557
Dispersion correction            ... done
                    ***********************HURRAY********************

CARTESIAN COORDINATES (ANGSTROEM)
---------------------------------
  C      0.103920   -0.488668   -1.614935
  C     -0.408870    0.611966   -0.926710
  C      0.481732   -1.601633   -0.859136
  H     -0.734119    1.486777   -1.478419
  H      0.901802   -2.468942   -1.356340
  C     -0.537635    0.609507    0.452166
  C      0.357481   -1.618924    0.518999
  H     -0.946856    1.474390    0.965093
  H      0.664150   -2.486626    1.091976
  C     -0.151459   -0.508199    1.183839
  O     -0.249488   -0.564629    2.534588
  H     -0.605477    0.266826    2.868837
  C      0.243423   -0.472915   -3.082021
  C      0.545383    0.708826   -3.768265
  C      0.079979   -1.629005   -3.841307
  C      0.674891    0.732034   -5.142070
  C      0.208228   -1.624519   -5.224056
  C      0.506370   -0.436605   -5.884568
  H      0.701392    1.627065   -3.213115
  H     -0.173842   -2.561681   -3.349721
  H      0.918047    1.652318   -5.661079
  H      0.063608   -2.545840   -5.772445
  O      0.649305   -0.321532   -7.223930
  C      0.506863   -1.492963   -8.004279
  H      1.247913   -2.247330   -7.723549
  H     -0.496495   -1.917233   -7.903243
  H      0.669932   -1.190714   -9.036847

 Multiplicity           Mult            ....    1
 Number of Electrons    NEL             ....  106
 Basis Dimension        Dim             ....  537

ORBITAL ENERGIES
----------------

  NO   OCC          E(Eh)            E(eV)
   0   2.0000     -19.242373      -523.6116
   1   2.0000     -19.238026      -523.4933
   2   2.0000     -10.288126      -279.9541
   3   2.0000     -10.286471      -279.9091
   4   2.0000     -10.264766      -279.3185
   5   2.0000     -10.233075      -278.4561
   6   2.0000     -10.232670      -278.4451
   7   2.0000     -10.228747      -278.3384
   8   2.0000     -10.228462      -278.3306
   9   2.0000     -10.227975      -278.3173
  10   2.0000     -10.227744      -278.3111
  11   2.0000     -10.225236      -278.2428
  12   2.0000     -10.224489      -278.2225
  13   2.0000     -10.223265      -278.1892
  14   2.0000     -10.223126      -278.1854
  15   2.0000      -1.103951       -30.0400
  16   2.0000      -1.095987       -29.8233
  17   2.0000      -0.899131       -24.4666
  18   2.0000      -0.876161       -23.8416
  19   2.0000      -0.803508       -21.8646
  20   2.0000      -0.780658       -21.2428
  21   2.0000      -0.773171       -21.0390
  22   2.0000      -0.754214       -20.5232
  23   2.0000      -0.711758       -19.3679
  24   2.0000      -0.655853       -17.8467
  25   2.0000      -0.635573       -17.2948
  26   2.0000      -0.625115       -17.0102
  27   2.0000      -0.598163       -16.2768
  28   2.0000      -0.566039       -15.4027
  29   2.0000      -0.555064       -15.1041
  30   2.0000      -0.522409       -14.2155
  31   2.0000      -0.509366       -13.8605
  32   2.0000      -0.486325       -13.2336
  33   2.0000      -0.484511       -13.1842
  34   2.0000      -0.463467       -12.6116
  35   2.0000      -0.456480       -12.4214
  36   2.0000      -0.440553       -11.9880
  37   2.0000      -0.436790       -11.8857
  38   2.0000      -0.434517       -11.8238
  39   2.0000      -0.430012       -11.7012
  40   2.0000      -0.423796       -11.5321
  41   2.0000      -0.405806       -11.0425
  42   2.0000      -0.396742       -10.7959
  43   2.0000      -0.377086       -10.2610
  44   2.0000      -0.367704       -10.0057
  45   2.0000      -0.364874        -9.9287
  46   2.0000      -0.351962        -9.5774
  47   2.0000      -0.337228        -9.1764
  48   2.0000      -0.335254        -9.1227
  49   2.0000      -0.274162        -7.4603
  50   2.0000      -0.272522        -7.4157
  51   2.0000      -0.262341        -7.1387
  52   2.0000      -0.215754        -5.8710
  53   0.0000      -0.021600        -0.5878
  54   0.0000      -0.015964        -0.4344
  55   0.0000      -0.007338        -0.1997
  56   0.0000       0.037077         1.0089
  57   0.0000       0.062281         1.6947

MULLIKEN ATOMIC CHARGES
-----------------------
   0 C :    0.149115
   1 C :   -0.238135
   2 C :   -0.223402
   3 H :    0.154882
   4 H :    0.150990
   5 C :   -0.253448
   6 C :   -0.258202
   7 H :    0.156408
   8 H :    0.141810
   9 C :    0.278830
  10 O :   -0.433434
  11 H :    0.367827
  12 C :    0.154735
  13 C :   -0.215859
  14 C :   -0.251819
  15 C :   -0.256872
  16 C :   -0.294358
  17 C :    0.330073
  18 H :    0.150575
  19 H :    0.153801
  20 H :    0.135867
  21 H :    0.160641
  22 O :   -0.261725
  23 C :   -0.253132
  24 H :    0.146836
  25 H :    0.146929
  26 H :    0.161067
Sum of atomic charges:    0.0000000

LOEWDIN ATOMIC CHARGES
----------------------
   0 C :   -0.130381
   1 C :   -0.108214
   2 C :   -0.107376
   3 H :    0.158840
   4 H :    0.158611
   5 C :   -0.142842
   6 C :   -0.133790
   7 H :    0.157701
   8 H :    0.156151
   9 C :   -0.294187
  10 O :    0.078313
  11 H :    0.207624
  12 C :   -0.130392
  13 C :   -0.108856
  14 C :   -0.108144
  15 C :   -0.128099
  16 C :   -0.144489
  17 C :   -0.270801
  18 H :    0.158568
  19 H :    0.158482
  20 H :    0.156204
  21 H :    0.159472
  22 O :    0.235417
  23 C :   -0.330246
  24 H :    0.115977
  25 H :    0.115762
  26 H :    0.120696

  Mayer bond orders larger than 0.100000
B(  0-C ,  1-C ) :   1.3607 B(  0-C ,  2-C ) :   1.3558 B(  0-C , 12-C ) :   0.9058
B(  1-C ,  3-H ) :   0.9498 B(  1-C ,  5-C ) :   1.4162 B(  2-C ,  4-H ) :   0.9650
B(  2-C ,  6-C ) :   1.4684 B(  5-C ,  7-H ) :   0.9618 B(  5-C ,  9-C ) :   1.3506
B(  6-C ,  8-H ) :   0.9824 B(  6-C ,  9-C ) :   1.3674 B(  9-C , 10-O ) :   1.1307
B( 10-O , 11-H ) :   0.8514 B( 12-C , 13-C ) :   1.3370 B( 12-C , 14-C ) :   1.3828
B( 13-C , 15-C ) :   1.4772 B( 13-C , 18-H ) :   0.9669 B( 14-C , 16-C ) :   1.4209
B( 14-C , 19-H ) :   0.9490 B( 15-C , 17-C ) :   1.3298 B( 15-C , 20-H ) :   0.9912
B( 16-C , 17-C ) :   1.3010 B( 16-C , 21-H ) :   0.9565 B( 17-C , 22-O ) :   1.1401
B( 22-O , 23-C ) :   0.9297 B( 23-C , 24-H ) :   0.9616 B( 23-C , 25-H ) :   0.9612
B( 23-C , 26-H ) :   0.9639

Dispersion correction           -0.027912176
FINAL SINGLE POINT ENERGY      -652.576298595881

DIPOLE MOMENT
-------------
                                X             Y             Z
Electronic contribution:     -0.18481       2.21849       6.85947
Nuclear contribution   :     -0.17423      -2.18513      -7.09047
                        -----------------------------------------
Total Dipole Moment    :     -0.35903       0.03336      -0.23100
                        -----------------------------------------
Magnitude (a.u.)       :      0.42823
Magnitude (Debye)      :      1.08847

Dispersion correction in the Hessian             ... done   (      0.4 sec)

VIBRATIONAL FREQUENCIES
-----------------------

Scaling factor for frequencies =  1.000000000  (already applied!)

   0:         0.00 cm**-1
   1:         0.00 cm**-1
   2:         0.00 cm**-1
   3:         0.00 cm**-1
   4:         0.00 cm**-1
   5:         0.00 cm**-1
   6:        47.40 cm**-1
   7:        63.49 cm**-1
   8:        82.36 cm**-1
   9:       106.51 cm**-1
  10:       164.00 cm**-1
  11:       222.65 cm**-1
  12:       240.94 cm**-1
  13:       267.53 cm**-1
  14:       286.63 cm**-1
  15:       374.01 cm**-1
  16:       378.02 cm**-1
  17:       410.34 cm**-1
  18:       426.00 cm**-1
  19:       431.14 cm**-1
  20:       453.29 cm**-1
  21:       483.61 cm**-1
  22:       531.33 cm**-1
  23:       555.35 cm**-1
  24:       561.42 cm**-1
  25:       645.06 cm**-1
  26:       655.73 cm**-1
  27:       681.77 cm**-1
  28:       739.83 cm**-1
  29:       762.64 cm**-1
  30:       821.66 cm**-1
  31:       829.30 cm**-1
  32:       831.59 cm**-1
  33:       846.24 cm**-1
  34:       857.93 cm**-1
  35:       870.31 cm**-1
  36:       961.32 cm**-1
  37:       971.69 cm**-1
  38:       978.28 cm**-1
  39:       980.58 cm**-1
  40:      1018.93 cm**-1
  41:      1032.62 cm**-1
  42:      1056.78 cm**-1
  43:      1084.50 cm**-1
  44:      1129.32 cm**-1
  45:      1134.99 cm**-1
  46:      1171.49 cm**-1
  47:      1188.86 cm**-1
  48:      1198.71 cm**-1
  49:      1199.84 cm**-1
  50:      1204.83 cm**-1
  51:      1294.21 cm**-1
  52:      1303.84 cm**-1
  53:      1312.36 cm**-1
  54:      1325.45 cm**-1
  55:      1335.91 cm**-1
  56:      1361.89 cm**-1
  57:      1381.73 cm**-1
  58:      1448.91 cm**-1
  59:      1468.09 cm**-1
  60:      1472.45 cm**-1
  61:      1479.52 cm**-1
  62:      1487.58 cm**-1
  63:      1539.89 cm**-1
  64:      1572.10 cm**-1
  65:      1629.19 cm**-1
  66:      1650.75 cm**-1
  67:      1671.71 cm**-1
  68:      1676.09 cm**-1
  69:      3033.68 cm**-1
  70:      3102.87 cm**-1
  71:      3163.70 cm**-1
  72:      3184.07 cm**-1
  73:      3190.92 cm**-1
  74:      3191.99 cm**-1
  75:      3195.68 cm**-1
  76:      3202.81 cm**-1
  77:      3207.88 cm**-1
  78:      3208.84 cm**-1
  79:      3227.65 cm**-1
  80:      3823.53 cm**-1

IR SPECTRUM
-----------

 Mode   freq       eps      Int      T**2         TX        TY        TZ
       cm**-1   L/(mol*cm) km/mol    a.u.
----------------------------------------------------------------------------
  6:     47.40   0.000594    3.00  0.003913  (-0.061583 -0.001036 -0.010928)
  7:     63.49   0.000315    1.59  0.001549  ( 0.038954  0.001688  0.005401)
  8:     82.36   0.000217    1.10  0.000821  ( 0.000615 -0.019082  0.021370)
  9:    106.51   0.000536    2.71  0.001572  ( 0.038479 -0.003360 -0.008923)
 10:    164.00   0.000443    2.24  0.000844  ( 0.022524 -0.009735  0.015548)
 11:    222.65   0.000134    0.68  0.000188  ( 0.011597  0.003117 -0.006632)
 12:    240.94   0.000059    0.30  0.000077  ( 0.000766 -0.000141 -0.008724)
 13:    267.53   0.000318    1.61  0.000371  ( 0.018793  0.003584  0.002338)
 14:    286.63   0.000464    2.35  0.000505  ( 0.012801 -0.010134  0.015455)
 15:    374.01   0.034209  172.88  0.028543  ( 0.155729  0.062588  0.019340)
 16:    378.02   0.003469   17.53  0.002864  (-0.035433 -0.011158  0.038524)
 17:    410.34   0.000082    0.41  0.000062  (-0.004006 -0.003902 -0.005568)
 18:    426.00   0.000224    1.13  0.000164  ( 0.000439 -0.000465 -0.012796)
 19:    431.14   0.000030    0.15  0.000022  (-0.001274 -0.000573 -0.004441)
 20:    453.29   0.001788    9.04  0.001231  (-0.009798 -0.000582  0.033687)
 21:    483.61   0.000711    3.59  0.000459  (-0.013091  0.006325 -0.015735)
 22:    531.33   0.010239   51.74  0.006014  (-0.076430 -0.011997  0.005323)
 23:    555.35   0.010622   53.68  0.005969  ( 0.004077 -0.011904  0.076225)
 24:    561.42   0.001862    9.41  0.001035  (-0.005464  0.029798  0.010838)
 25:    645.06   0.000713    3.61  0.000345  ( 0.010392  0.007267  0.013577)
 26:    655.73   0.000238    1.20  0.000113  (-0.003507  0.009559 -0.003095)
 27:    681.77   0.000206    1.04  0.000094  ( 0.000380  0.007770 -0.005817)
 28:    739.83   0.000665    3.36  0.000281  ( 0.016644  0.000362 -0.001847)
 29:    762.64   0.000267    1.35  0.000109  ( 0.000598 -0.010389  0.001053)
 30:    821.66   0.008830   44.62  0.003354  (-0.007762 -0.011687  0.056185)
 31:    829.30   0.003917   19.80  0.001474  (-0.037190 -0.003190 -0.008987)
 32:    831.59   0.000087    0.44  0.000033  ( 0.003893 -0.004122  0.000812)
 33:    846.24   0.037100  187.49  0.013681  (-0.116269 -0.009874 -0.008071)
 34:    857.93   0.002447   12.37  0.000890  ( 0.000324  0.004543  0.029484)
 35:    870.31   0.003779   19.10  0.001355  (-0.007499  0.036037 -0.000140)
 36:    961.32   0.000011    0.06  0.000004  ( 0.000399  0.001475 -0.001118)
 37:    971.69   0.000105    0.53  0.000034  (-0.000781 -0.005478  0.001799)
 38:    978.28   0.000052    0.26  0.000017  ( 0.000100 -0.002240 -0.003410)
 39:    980.58   0.000055    0.28  0.000018  (-0.000415  0.002386  0.003415)
 40:   1018.93   0.000794    4.01  0.000243  (-0.001231  0.003513  0.015142)
 41:   1032.62   0.000191    0.96  0.000058  (-0.000179  0.003693  0.006630)
 42:   1056.78   0.001164    5.88  0.000344  ( 0.002758  0.017592  0.005164)
 43:   1084.50   0.019460   98.34  0.005600  ( 0.004871  0.053227  0.052371)
 44:   1129.32   0.002133   10.78  0.000589  (-0.014804  0.013481  0.013727)
 45:   1134.99   0.005897   29.80  0.001621  (-0.001188 -0.040073  0.003761)
 46:   1171.49   0.000184    0.93  0.000049  (-0.006858  0.001398  0.000247)
 47:   1188.86   0.018494   93.46  0.004854  (-0.006229  0.010625  0.068576)
 48:   1198.71   0.052695  266.30  0.013718  ( 0.006418  0.013296 -0.116191)
 49:   1199.84   0.007213   36.45  0.001876  ( 0.000748 -0.000465  0.043304)
 50:   1204.83   0.002920   14.76  0.000756  ( 0.000571  0.017354  0.021326)
 51:   1294.21   0.123182  622.51  0.029702  (-0.010920  0.018303  0.171020)
 52:   1303.84   0.014764   74.61  0.003534  ( 0.008682 -0.007377 -0.058342)
 53:   1312.36   0.009199   46.49  0.002187  (-0.003887  0.035181  0.030573)
 54:   1325.45   0.000429    2.17  0.000101  ( 0.001112 -0.009947  0.000851)
 55:   1335.91   0.000840    4.25  0.000196  ( 0.003716 -0.004393 -0.012776)
 56:   1361.89   0.009681   48.93  0.002218  (-0.001712 -0.011824 -0.045559)
 57:   1381.73   0.009621   48.62  0.002173  (-0.006023  0.005597  0.045883)
 58:   1448.91   0.000176    0.89  0.000038  (-0.000269  0.005885  0.001770)
 59:   1468.09   0.004691   23.70  0.000997  ( 0.003259  0.005753 -0.030876)
 60:   1472.45   0.002819   14.25  0.000598  (-0.023989  0.004574  0.001063)
 61:   1479.52   0.015056   76.08  0.003176  ( 0.004552 -0.001716 -0.056142)
 62:   1487.58   0.002103   10.63  0.000441  (-0.001440 -0.001625  0.020892)
 63:   1539.89   0.117670  594.65  0.023846  ( 0.012621 -0.004803 -0.153830)
 64:   1572.10   0.000168    0.85  0.000033  ( 0.000391  0.005575  0.001430)
 65:   1629.19   0.006218   31.42  0.001191  ( 0.002880  0.020325 -0.027743)
 66:   1650.75   0.001347    6.81  0.000255  ( 0.005943 -0.008790  0.011920)
 67:   1671.71   0.001690    8.54  0.000315  ( 0.001081  0.002838  0.017498)
 68:   1676.09   0.042398  214.26  0.007894  (-0.008353  0.006802  0.088192)
 69:   3033.68   0.014228   71.90  0.001464  ( 0.002725  0.026847  0.027118)
 70:   3102.87   0.008530   43.11  0.000858  ( 0.028672 -0.005377  0.002619)
 71:   3163.70   0.004501   22.75  0.000444  (-0.003290 -0.007285  0.019496)
 72:   3184.07   0.004132   20.88  0.000405  (-0.001770  0.002181  0.019927)
 73:   3190.92   0.002817   14.23  0.000275  ( 0.004906  0.001707 -0.015763)
 74:   3191.99   0.001176    5.95  0.000115  ( 0.001396  0.001172  0.010568)
 75:   3195.68   0.000700    3.54  0.000068  ( 0.001542  0.008121 -0.000030)
 76:   3202.81   0.001115    5.64  0.000109  ( 0.005308 -0.008846 -0.001489)
 77:   3207.88   0.003139   15.86  0.000305  (-0.000014  0.015390 -0.008279)
 78:   3208.84   0.000268    1.36  0.000026  ( 0.003112 -0.000026  0.004052)
 79:   3227.65   0.000960    4.85  0.000093  (-0.000195 -0.004826 -0.008335)
 80:   3823.53   0.042828  216.43  0.003495  (-0.016910  0.033290  0.045840)

--------------------------
THERMOCHEMISTRY AT 298.15K
--------------------------

Temperature         ... 298.15 K
Pressure            ... 1.00 atm
Total Mass          ... 200.24 AMU

Throughout the following assumptions are being made:
  (1) The electronic state is orbitally nondegenerate
  (2) There are no thermally accessible electronically excited states
  (3) Hindered rotations indicated by low frequency modes are not
      treated as such but are treated as vibrations and this may
      cause some error
  (4) All equations used are the standard statistical mechanics
      equations for an ideal gas
  (5) All vibrations are strictly harmonic

freq.      47.40  E(vib)   ...       0.53
freq.      63.49  E(vib)   ...       0.51
freq.      82.36  E(vib)   ...       0.48
freq.     106.51  E(vib)   ...       0.45
freq.     164.00  E(vib)   ...       0.39
freq.     222.65  E(vib)   ...       0.33
freq.     240.94  E(vib)   ...       0.31
freq.     267.53  E(vib)   ...       0.29
freq.     286.63  E(vib)   ...       0.27
freq.     374.01  E(vib)   ...       0.21
freq.     378.02  E(vib)   ...       0.21
freq.     410.34  E(vib)   ...       0.19
freq.     426.00  E(vib)   ...       0.18
freq.     431.14  E(vib)   ...       0.18
freq.     453.29  E(vib)   ...       0.16
freq.     483.61  E(vib)   ...       0.15
freq.     531.33  E(vib)   ...       0.13
freq.     555.35  E(vib)   ...       0.12
freq.     561.42  E(vib)   ...       0.11
freq.     645.06  E(vib)   ...       0.09
freq.     655.73  E(vib)   ...       0.08
freq.     681.77  E(vib)   ...       0.08
freq.     739.83  E(vib)   ...       0.06
freq.     762.64  E(vib)   ...       0.06
freq.     821.66  E(vib)   ...       0.05
freq.     829.30  E(vib)   ...       0.04
freq.     831.59  E(vib)   ...       0.04
freq.     846.24  E(vib)   ...       0.04
freq.     857.93  E(vib)   ...       0.04
freq.     870.31  E(vib)   ...       0.04
freq.     961.32  E(vib)   ...       0.03
freq.     971.69  E(vib)   ...       0.03
freq.     978.28  E(vib)   ...       0.03
freq.     980.58  E(vib)   ...       0.02
freq.    1018.93  E(vib)   ...       0.02
freq.    1032.62  E(vib)   ...       0.02
freq.    1056.78  E(vib)   ...       0.02
freq.    1084.50  E(vib)   ...       0.02
freq.    1129.32  E(vib)   ...       0.01
freq.    1134.99  E(vib)   ...       0.01
freq.    1171.49  E(vib)   ...       0.01
freq.    1188.86  E(vib)   ...       0.01
freq.    1198.71  E(vib)   ...       0.01
freq.    1199.84  E(vib)   ...       0.01
freq.    1204.83  E(vib)   ...       0.01
freq.    1294.21  E(vib)   ...       0.01
freq.    1303.84  E(vib)   ...       0.01
freq.    1312.36  E(vib)   ...       0.01
freq.    1325.45  E(vib)   ...       0.01
freq.    1335.91  E(vib)   ...       0.01
freq.    1361.89  E(vib)   ...       0.01
freq.    1381.73  E(vib)   ...       0.01
freq.    1448.91  E(vib)   ...       0.00
freq.    1468.09  E(vib)   ...       0.00
freq.    1472.45  E(vib)   ...       0.00
freq.    1479.52  E(vib)   ...       0.00
freq.    1487.58  E(vib)   ...       0.00
freq.    1539.89  E(vib)   ...       0.00
freq.    1572.10  E(vib)   ...       0.00
freq.    1629.19  E(vib)   ...       0.00
freq.    1650.75  E(vib)   ...       0.00
freq.    1671.71  E(vib)   ...       0.00
freq.    1676.09  E(vib)   ...       0.00
freq.    3033.68  E(vib)   ...       0.00
freq.    3102.87  E(vib)   ...       0.00
freq.    3163.70  E(vib)   ...       0.00
freq.    3184.07  E(vib)   ...       0.00
freq.    3190.92  E(vib)   ...       0.00
freq.    3191.99  E(vib)   ...       0.00
freq.    3195.68  E(vib)   ...       0.00
freq.    3202.81  E(vib)   ...       0.00
freq.    3207.88  E(vib)   ...       0.00
freq.    3208.84  E(vib)   ...       0.00
freq.    3227.65  E(vib)   ...       0.00
freq.    3823.53  E(vib)   ...       0.00

------------
INNER ENERGY
------------

The inner energy is: U= E(el) + E(ZPE) + E(vib) + E(rot) + E(trans)
    E(el)   - is the total energy from the electronic structure calculation
              = E(kin-el) + E(nuc-el) + E(el-el) + E(nuc-nuc)
    E(ZPE)  - the the zero temperature vibrational energy from the frequency calculation
    E(vib)  - the the finite temperature correction to E(ZPE) due to population
              of excited vibrational states
    E(rot)  - is the rotational thermal energy
    E(trans)- is the translational thermal energy

Summary of contributions to the inner energy U:
Electronic energy                ...   -652.57629860 Eh
Zero point energy                ...      0.21890022 Eh     137.36 kcal/mol
Thermal vibrational correction   ...      0.00979342 Eh       6.15 kcal/mol
Thermal rotational correction    ...      0.00141627 Eh       0.89 kcal/mol
Thermal translational correction ...      0.00141627 Eh       0.89 kcal/mol
-----------------------------------------------------------------------
Total thermal energy                   -652.34477241 Eh

Summary of corrections to the electronic energy:
(perhaps to be used in another calculation)
Total thermal correction                  0.01262597 Eh       7.92 kcal/mol
Non-thermal (ZPE) correction              0.21890022 Eh     137.36 kcal/mol
-----------------------------------------------------------------------
Total correction                          0.23152619 Eh     145.28 kcal/mol

--------
ENTHALPY
--------

The enthalpy is H = U + kB*T
                kB is Boltzmann's constant
Total free energy                 ...   -652.34477241 Eh
Thermal Enthalpy correction       ...      0.00094421 Eh       0.59 kcal/mol
-----------------------------------------------------------------------
Total Enthalpy                    ...   -652.34382820 Eh

Note: Only C1 symmetry has been detected, increase convergence thresholds
      if your molecule has a higher symmetry. Symmetry factor of 1.0 is
      used for the rotational entropy correction.

Note: Rotational entropy computed according to Herzberg
Infrared and Raman Spectra, Chapter V,1, Van Nostrand Reinhold, 1945
Point Group:  C1, Symmetry Number:   1
Rotational constants in cm-1:     0.087311     0.007910     0.007361

Vibrational entropy computed according to the QRRHO of S. Grimme
Chem.Eur.J. 2012 18 9955

-------
ENTROPY
-------

The entropy contributions are T*S = T*(S(el)+S(vib)+S(rot)+S(trans))
     S(el)   - electronic entropy
     S(vib)  - vibrational entropy
     S(rot)  - rotational entropy
     S(trans)- translational entropy
The entropies will be listed as multiplied by the temperature to get
units of energy

                             ****ORCA TERMINATED NORMALLY****
TOTAL RUN TIME: 0 days 0 hours 13 minutes 6 seconds 462 msec
