                         Program Version 5.0.4 -  RELEASE  -
|  1> %pal nprocs 24 end
|  2> %maxcore 3500
|  3> ! PBE0 D3BJ def2-TZVP TightSCF OPT FREQ TightOpt
|  4> ! CPCM(dmso)
|  5> %scf
|  6> MaxIter 800
|  7> end
|  8> %geom
|  9> MaxIter 800
| 10> MaxStep 0.2
| 11> end
| 12> *xyz -1 1
| 13>
| 14> C       0.05941400     -0.50333600     -1.62208200
| 15> C      -0.38554800      0.61679000     -0.90699900
| 16> C       0.35229200     -1.64541800     -0.86452400
| 17> H      -0.64717500      1.52185700     -1.44853700
| 18> H       0.72274100     -2.53440300     -1.36788500
| 19> C      -0.53232200      0.60497800      0.46569300
| 20> C       0.21405400     -1.67440100      0.50854200
| 21> H      -0.89311200      1.49351900      0.97750200
| 22> H       0.46553900     -2.57862900      1.05710500
| 23> C      -0.23663400     -0.54541500      1.25993800
| 24> O      -0.36371200     -0.56364900      2.52996300
| 25> C       0.21545600     -0.48029700     -3.08286200
| 26> C       0.51223900      0.70409000     -3.77246900
| 27> C       0.07985900     -1.63413300     -3.85666300
| 28> C       0.66046100      0.73205100     -5.14515500
| 29> C       0.23572500     -1.62665300     -5.23728400
| 30> C       0.52573300     -0.43580400     -5.89356300
| 31> H       0.64962200      1.62556200     -3.21763800
| 32> H      -0.17234900     -2.57287900     -3.37587900
| 33> H       0.89718600      1.65842500     -5.65726700
| 34> H       0.11567800     -2.55094100     -5.78753000
| 35> O       0.69154400     -0.31647600     -7.23473800
| 36> C       0.58854400     -1.49152100     -8.01227500
| 37> H       1.33758500     -2.23198100     -7.71406600
| 38> H      -0.40791600     -1.93721200     -7.93198400
| 39> H       0.76756000     -1.19143300     -9.04321700
| 40> *
| 41>
| 42>                          ****END OF INPUT****
 Total Charge           Charge          ....   -1
 Multiplicity           Mult            ....    1
 Number of Electrons    NEL             ....  106
Dispersion correction           -0.027286158
FINAL SINGLE POINT ENERGY      -652.091030582047
Dispersion correction            ... done
Dispersion correction           -0.027282195
FINAL SINGLE POINT ENERGY      -652.091032176226
Dispersion correction            ... done
                    ***********************HURRAY********************

CARTESIAN COORDINATES (ANGSTROEM)
---------------------------------
  C      0.059606   -0.503107   -1.621653
  C     -0.385989    0.616932   -0.906276
  C      0.352813   -1.645380   -0.863956
  H     -0.647982    1.521721   -1.447978
  H      0.723613   -2.533988   -1.367598
  C     -0.532967    0.604850    0.466565
  C      0.214389   -1.674553    0.509255
  H     -0.894367    1.493055    0.978384
  H      0.466203   -2.578668    1.057720
  C     -0.236880   -0.545667    1.260854
  O     -0.364197   -0.564121    2.530941
  C      0.215632   -0.480010   -3.082984
  C      0.512881    0.704592   -3.772785
  C      0.079570   -1.633954   -3.857083
  C      0.661065    0.732496   -5.145739
  C      0.235380   -1.626315   -5.237988
  C      0.526011   -0.435460   -5.894472
  H      0.650612    1.625797   -3.217711
  H     -0.172846   -2.572501   -3.376148
  H      0.898161    1.658759   -5.657766
  H      0.114586   -2.550341   -5.788354
  O      0.691822   -0.316610   -7.235935
  C      0.588591   -1.492199   -8.012972
  H      1.337640   -2.232409   -7.714509
  H     -0.407846   -1.937568   -7.931602
  H      0.766963   -1.192660   -9.044084

 Multiplicity           Mult            ....    1
 Number of Electrons    NEL             ....  106
 Basis Dimension        Dim             ....  531

ORBITAL ENERGIES
----------------

  NO   OCC          E(Eh)            E(eV)
   0   2.0000     -19.236449      -523.4504
   1   2.0000     -19.113059      -520.0928
   2   2.0000     -10.277254      -279.6583
   3   2.0000     -10.261632      -279.2332
   4   2.0000     -10.243270      -278.7336
   5   2.0000     -10.223543      -278.1968
   6   2.0000     -10.218249      -278.0527
   7   2.0000     -10.218182      -278.0509
   8   2.0000     -10.217541      -278.0334
   9   2.0000     -10.216680      -278.0100
  10   2.0000     -10.205395      -277.7029
  11   2.0000     -10.205351      -277.7017
  12   2.0000     -10.202298      -277.6187
  13   2.0000     -10.187283      -277.2101
  14   2.0000     -10.187233      -277.2087
  15   2.0000      -1.097169       -29.8555
  16   2.0000      -0.978648       -26.6304
  17   2.0000      -0.882989       -24.0274
  18   2.0000      -0.845696       -23.0125
  19   2.0000      -0.782437       -21.2912
  20   2.0000      -0.768348       -20.9078
  21   2.0000      -0.744120       -20.2485
  22   2.0000      -0.728940       -19.8355
  23   2.0000      -0.689624       -18.7656
  24   2.0000      -0.631370       -17.1805
  25   2.0000      -0.608991       -16.5715
  26   2.0000      -0.593149       -16.1404
  27   2.0000      -0.570149       -15.5146
  28   2.0000      -0.549040       -14.9401
  29   2.0000      -0.508909       -13.8481
  30   2.0000      -0.497226       -13.5302
  31   2.0000      -0.481398       -13.0995
  32   2.0000      -0.461266       -12.5517
  33   2.0000      -0.450196       -12.2505
  34   2.0000      -0.437712       -11.9107
  35   2.0000      -0.432095       -11.7579
  36   2.0000      -0.425893       -11.5891
  37   2.0000      -0.418520       -11.3885
  38   2.0000      -0.405012       -11.0209
  39   2.0000      -0.394334       -10.7304
  40   2.0000      -0.381580       -10.3833
  41   2.0000      -0.380156       -10.3446
  42   2.0000      -0.367966       -10.0129
  43   2.0000      -0.345738        -9.4080
  44   2.0000      -0.343994        -9.3606
  45   2.0000      -0.339376        -9.2349
  46   2.0000      -0.323613        -8.8060
  47   2.0000      -0.307604        -8.3703
  48   2.0000      -0.265746        -7.2313
  49   2.0000      -0.248878        -6.7723
  50   2.0000      -0.237393        -6.4598
  51   2.0000      -0.219854        -5.9825
  52   2.0000      -0.170499        -4.6395
  53   0.0000      -0.007058        -0.1920
  54   0.0000      -0.001563        -0.0425
  55   0.0000       0.015554         0.4233
  56   0.0000       0.063860         1.7377
  57   0.0000       0.066340         1.8052

MULLIKEN ATOMIC CHARGES
-----------------------
   0 C :    0.106543
   1 C :   -0.240623
   2 C :   -0.238005
   3 H :    0.131065
   4 H :    0.130761
   5 C :   -0.315245
   6 C :   -0.316793
   7 H :    0.096920
   8 H :    0.097341
   9 C :    0.270222
  10 O :   -0.659550
  11 C :    0.154924
  12 C :   -0.219159
  13 C :   -0.260042
  14 C :   -0.261109
  15 C :   -0.297212
  16 C :    0.322462
  17 H :    0.140746
  18 H :    0.144101
  19 H :    0.130337
  20 H :    0.155674
  21 O :   -0.268775
  22 C :   -0.250639
  23 H :    0.143425
  24 H :    0.143742
  25 H :    0.158887
Sum of atomic charges:   -1.0000000

LOEWDIN ATOMIC CHARGES
----------------------
   0 C :   -0.173244
   1 C :   -0.149764
   2 C :   -0.149602
   3 H :    0.148804
   4 H :    0.148751
   5 C :   -0.190391
   6 C :   -0.190428
   7 H :    0.135723
   8 H :    0.135765
   9 C :   -0.437295
  10 O :   -0.194770
  11 C :   -0.135884
  12 C :   -0.118726
  13 C :   -0.119889
  14 C :   -0.137222
  15 C :   -0.153545
  16 C :   -0.278752
  17 H :    0.154789
  18 H :    0.154506
  19 H :    0.153901
  20 H :    0.157402
  21 O :    0.226875
  22 C :   -0.335655
  23 H :    0.114631
  24 H :    0.114368
  25 H :    0.119650

  Mayer bond orders larger than 0.100000
B(  0-C ,  1-C ) :   1.3220 B(  0-C ,  2-C ) :   1.3203 B(  0-C , 11-C ) :   0.9316
B(  1-C ,  3-H ) :   0.9516 B(  1-C ,  5-C ) :   1.4373 B(  2-C ,  4-H ) :   0.9510
B(  2-C ,  6-C ) :   1.4389 B(  5-C ,  7-H ) :   0.9916 B(  5-C ,  9-C ) :   1.2053
B(  6-C ,  8-H ) :   0.9914 B(  6-C ,  9-C ) :   1.2046 B(  9-C , 10-O ) :   1.6942
B( 11-C , 12-C ) :   1.3335 B( 11-C , 13-C ) :   1.3788 B( 12-C , 14-C ) :   1.4791
B( 12-C , 17-H ) :   0.9684 B( 13-C , 15-C ) :   1.4202 B( 13-C , 18-H ) :   0.9495
B( 14-C , 16-C ) :   1.3335 B( 14-C , 19-H ) :   0.9938 B( 15-C , 16-C ) :   1.3027
B( 15-C , 20-H ) :   0.9584 B( 16-C , 21-O ) :   1.1267 B( 21-O , 22-C ) :   0.9356
B( 22-C , 23-H ) :   0.9619 B( 22-C , 24-H ) :   0.9616 B( 22-C , 25-H ) :   0.9644

Dispersion correction           -0.027281897
FINAL SINGLE POINT ENERGY      -652.091032346466

DIPOLE MOMENT
-------------
                                X             Y             Z
Electronic contribution:     -0.09259       2.25902       4.15316
Nuclear contribution   :      0.81470      -2.91471     -12.13921
                        -----------------------------------------
Total Dipole Moment    :      0.72211      -0.65568      -7.98605
                        -----------------------------------------
Magnitude (a.u.)       :      8.04539
Magnitude (Debye)      :     20.44977

Dispersion correction in the Hessian             ... done   (      0.4 sec)

VIBRATIONAL FREQUENCIES
-----------------------

Scaling factor for frequencies =  1.000000000  (already applied!)

   0:         0.00 cm**-1
   1:         0.00 cm**-1
   2:         0.00 cm**-1
   3:         0.00 cm**-1
   4:         0.00 cm**-1
   5:         0.00 cm**-1
   6:        48.98 cm**-1
   7:        64.48 cm**-1
   8:        83.72 cm**-1
   9:       104.09 cm**-1
  10:       155.87 cm**-1
  11:       222.61 cm**-1
  12:       239.10 cm**-1
  13:       268.27 cm**-1
  14:       280.41 cm**-1
  15:       389.81 cm**-1
  16:       402.93 cm**-1
  17:       430.03 cm**-1
  18:       434.76 cm**-1
  19:       467.20 cm**-1
  20:       485.19 cm**-1
  21:       526.02 cm**-1
  22:       553.39 cm**-1
  23:       553.98 cm**-1
  24:       642.63 cm**-1
  25:       651.92 cm**-1
  26:       682.93 cm**-1
  27:       739.21 cm**-1
  28:       762.97 cm**-1
  29:       812.34 cm**-1
  30:       821.68 cm**-1
  31:       828.52 cm**-1
  32:       847.83 cm**-1
  33:       853.48 cm**-1
  34:       863.59 cm**-1
  35:       955.41 cm**-1
  36:       967.30 cm**-1
  37:       969.18 cm**-1
  38:       976.11 cm**-1
  39:       996.22 cm**-1
  40:      1023.85 cm**-1
  41:      1048.75 cm**-1
  42:      1086.52 cm**-1
  43:      1112.06 cm**-1
  44:      1132.04 cm**-1
  45:      1171.62 cm**-1
  46:      1174.71 cm**-1
  47:      1196.75 cm**-1
  48:      1204.19 cm**-1
  49:      1272.45 cm**-1
  50:      1288.08 cm**-1
  51:      1304.28 cm**-1
  52:      1320.34 cm**-1
  53:      1332.76 cm**-1
  54:      1353.02 cm**-1
  55:      1405.96 cm**-1
  56:      1447.38 cm**-1
  57:      1467.56 cm**-1
  58:      1470.08 cm**-1
  59:      1471.51 cm**-1
  60:      1486.47 cm**-1
  61:      1532.80 cm**-1
  62:      1560.37 cm**-1
  63:      1567.38 cm**-1
  64:      1629.21 cm**-1
  65:      1645.71 cm**-1
  66:      1672.13 cm**-1
  67:      3028.88 cm**-1
  68:      3095.67 cm**-1
  69:      3152.23 cm**-1
  70:      3153.23 cm**-1
  71:      3159.45 cm**-1
  72:      3170.64 cm**-1
  73:      3174.57 cm**-1
  74:      3188.41 cm**-1
  75:      3192.35 cm**-1
  76:      3203.93 cm**-1
  77:      3222.62 cm**-1

IR SPECTRUM
-----------

 Mode   freq       eps      Int      T**2         TX        TY        TZ
       cm**-1   L/(mol*cm) km/mol    a.u.
----------------------------------------------------------------------------
  6:     48.98   0.000117    0.59  0.000747  (-0.026397 -0.006180  0.003516)
  7:     64.48   0.000618    3.12  0.002990  (-0.042542 -0.003605 -0.034166)
  8:     83.72   0.000836    4.22  0.003115  (-0.045430 -0.031130 -0.009084)
  9:    104.09   0.001240    6.27  0.003717  ( 0.054762 -0.025482 -0.008307)
 10:    155.87   0.000148    0.75  0.000297  ( 0.011538  0.009175 -0.008922)
 11:    222.61   0.000954    4.82  0.001337  (-0.023588 -0.015804  0.023047)
 12:    239.10   0.001440    7.28  0.001879  ( 0.007561 -0.003303  0.042559)
 13:    268.27   0.000895    4.52  0.001041  (-0.024318 -0.010332 -0.018523)
 14:    280.41   0.000608    3.07  0.000677  (-0.020683  0.011422  0.010894)
 15:    389.81   0.000499    2.52  0.000399  ( 0.011424 -0.016395 -0.000098)
 16:    402.93   0.000099    0.50  0.000077  (-0.002082  0.008076  0.002676)
 17:    430.03   0.000053    0.27  0.000038  ( 0.001267 -0.000297  0.006034)
 18:    434.76   0.000923    4.67  0.000663  (-0.003527 -0.000615  0.025491)
 19:    467.20   0.001650    8.34  0.001102  ( 0.014974 -0.014978 -0.025570)
 20:    485.19   0.004034   20.38  0.002594  ( 0.014653 -0.015258  0.046333)
 21:    526.02   0.011110   56.14  0.006591  (-0.079073 -0.014503  0.011321)
 22:    553.39   0.017701   89.46  0.009982  ( 0.000975  0.015741 -0.098657)
 23:    553.98   0.003313   16.74  0.001866  ( 0.010069 -0.026377 -0.032694)
 24:    642.63   0.000385    1.95  0.000187  ( 0.009794  0.002362  0.009252)
 25:    651.92   0.000330    1.67  0.000158  (-0.001389  0.009318  0.008322)
 26:    682.93   0.000226    1.14  0.000103  ( 0.000067 -0.009904 -0.002322)
 27:    739.21   0.001496    7.56  0.000632  ( 0.024144  0.006746  0.001808)
 28:    762.97   0.001029    5.20  0.000421  ( 0.019756 -0.005232  0.001833)
 29:    812.34   0.001721    8.70  0.000661  ( 0.005441  0.001715 -0.025070)
 30:    821.68   0.008287   41.88  0.003147  ( 0.008131  0.011044 -0.054397)
 31:    828.52   0.001578    7.98  0.000594  ( 0.024260 -0.002425  0.000106)
 32:    847.83   0.040543  204.89  0.014923  ( 0.120980  0.007195  0.015321)
 33:    853.48   0.000671    3.39  0.000245  (-0.012978 -0.003992  0.007800)
 34:    863.59   0.003254   16.45  0.001176  ( 0.000829  0.034260 -0.001250)
 35:    955.41   0.000062    0.31  0.000020  (-0.003456 -0.002780  0.000690)
 36:    967.30   0.000208    1.05  0.000067  ( 0.003324  0.006513 -0.003695)
 37:    969.18   0.000161    0.81  0.000052  ( 0.001753  0.005941  0.003664)
 38:    976.11   0.000018    0.09  0.000006  (-0.000516 -0.002245  0.000724)
 39:    996.22   0.004397   22.22  0.001377  (-0.003856 -0.002010  0.036858)
 40:   1023.85   0.000159    0.80  0.000048  (-0.000613  0.000494  0.006907)
 41:   1048.75   0.001292    6.53  0.000384  (-0.001176 -0.015613 -0.011800)
 42:   1086.52   0.024285  122.73  0.006975  (-0.001882 -0.054620 -0.063151)
 43:   1112.06   0.004112   20.78  0.001154  (-0.012548  0.031566  0.000170)
 44:   1132.04   0.004841   24.47  0.001335  ( 0.006460  0.034454 -0.010285)
 45:   1171.62   0.000210    1.06  0.000056  ( 0.007301 -0.001363 -0.000899)
 46:   1174.71   0.034190  172.78  0.009083  ( 0.008869 -0.002088 -0.094866)
 47:   1196.75   0.000337    1.70  0.000088  (-0.001982 -0.008893  0.002222)
 48:   1204.19   0.003692   18.66  0.000957  (-0.000299 -0.018983 -0.024421)
 49:   1272.45   0.002567   12.97  0.000630  (-0.006466  0.024217  0.001176)
 50:   1288.08   0.111806  565.02  0.027087  (-0.011987  0.009785  0.163853)
 51:   1304.28   0.027980  141.40  0.006695  ( 0.012426 -0.050571 -0.063109)
 52:   1320.34   0.003329   16.82  0.000787  (-0.000355  0.012146 -0.025281)
 53:   1332.76   0.001335    6.75  0.000313  ( 0.005927 -0.006710 -0.015249)
 54:   1353.02   0.008921   45.08  0.002058  ( 0.003813  0.008018  0.044484)
 55:   1405.96   0.079303  400.76  0.017602  (-0.013571 -0.003895  0.131919)
 56:   1447.38   0.002105   10.64  0.000454  ( 0.002527 -0.020244 -0.006141)
 57:   1467.56   0.009668   48.86  0.002056  (-0.004274 -0.002422  0.045074)
 58:   1470.08   0.003995   20.19  0.000848  (-0.007199  0.027016 -0.008146)
 59:   1471.51   0.002995   15.14  0.000635  ( 0.024408 -0.005176 -0.003565)
 60:   1486.47   0.013404   67.74  0.002814  ( 0.006571 -0.003129 -0.052546)
 61:   1532.80   0.295442  1493.04  0.060149  ( 0.024200 -0.002718 -0.244042)
 62:   1560.37   0.009176   46.37  0.001835  ( 0.011686 -0.040885  0.005188)
 63:   1567.38   0.003677   18.58  0.000732  (-0.003191 -0.004135  0.026547)
 64:   1629.21   0.002695   13.62  0.000516  (-0.005803 -0.006838  0.020873)
 65:   1645.71   0.116068  586.56  0.022009  ( 0.015070  0.001894 -0.147575)
 66:   1672.13   0.017409   87.98  0.003249  (-0.004984  0.004572  0.056597)
 67:   3028.88   0.016408   82.92  0.001691  ( 0.001511  0.028268  0.029818)
 68:   3095.67   0.009608   48.55  0.000969  ( 0.030512 -0.004995  0.003549)
 69:   3152.23   0.010184   51.47  0.001008  (-0.001855 -0.007345  0.030836)
 70:   3153.23   0.007156   36.17  0.000708  (-0.003883  0.006862  0.025418)
 71:   3159.45   0.004943   24.98  0.000488  (-0.003829 -0.007558  0.020408)
 72:   3170.64   0.015647   79.07  0.001540  (-0.014178  0.036559 -0.001542)
 73:   3174.57   0.000667    3.37  0.000066  (-0.001997  0.003755  0.006891)
 74:   3188.41   0.003690   18.65  0.000361  (-0.002059  0.003241  0.018611)
 75:   3192.35   0.003217   16.26  0.000314  ( 0.003169  0.013909 -0.010533)
 76:   3203.93   0.002580   13.04  0.000251  ( 0.003088  0.015216 -0.003196)
 77:   3222.62   0.001663    8.40  0.000161  (-0.000369 -0.007443 -0.010272)

--------------------------
THERMOCHEMISTRY AT 298.15K
--------------------------

Temperature         ... 298.15 K
Pressure            ... 1.00 atm
Total Mass          ... 199.23 AMU

Throughout the following assumptions are being made:
  (1) The electronic state is orbitally nondegenerate
  (2) There are no thermally accessible electronically excited states
  (3) Hindered rotations indicated by low frequency modes are not
      treated as such but are treated as vibrations and this may
      cause some error
  (4) All equations used are the standard statistical mechanics
      equations for an ideal gas
  (5) All vibrations are strictly harmonic

freq.      48.98  E(vib)   ...       0.53
freq.      64.48  E(vib)   ...       0.51
freq.      83.72  E(vib)   ...       0.48
freq.     104.09  E(vib)   ...       0.46
freq.     155.87  E(vib)   ...       0.40
freq.     222.61  E(vib)   ...       0.33
freq.     239.10  E(vib)   ...       0.32
freq.     268.27  E(vib)   ...       0.29
freq.     280.41  E(vib)   ...       0.28
freq.     389.81  E(vib)   ...       0.20
freq.     402.93  E(vib)   ...       0.19
freq.     430.03  E(vib)   ...       0.18
freq.     434.76  E(vib)   ...       0.17
freq.     467.20  E(vib)   ...       0.16
freq.     485.19  E(vib)   ...       0.15
freq.     526.02  E(vib)   ...       0.13
freq.     553.39  E(vib)   ...       0.12
freq.     553.98  E(vib)   ...       0.12
freq.     642.63  E(vib)   ...       0.09
freq.     651.92  E(vib)   ...       0.08
freq.     682.93  E(vib)   ...       0.08
freq.     739.21  E(vib)   ...       0.06
freq.     762.97  E(vib)   ...       0.06
freq.     812.34  E(vib)   ...       0.05
freq.     821.68  E(vib)   ...       0.05
freq.     828.52  E(vib)   ...       0.04
freq.     847.83  E(vib)   ...       0.04
freq.     853.48  E(vib)   ...       0.04
freq.     863.59  E(vib)   ...       0.04
freq.     955.41  E(vib)   ...       0.03
freq.     967.30  E(vib)   ...       0.03
freq.     969.18  E(vib)   ...       0.03
freq.     976.11  E(vib)   ...       0.03
freq.     996.22  E(vib)   ...       0.02
freq.    1023.85  E(vib)   ...       0.02
freq.    1048.75  E(vib)   ...       0.02
freq.    1086.52  E(vib)   ...       0.02
freq.    1112.06  E(vib)   ...       0.01
freq.    1132.04  E(vib)   ...       0.01
freq.    1171.62  E(vib)   ...       0.01
freq.    1174.71  E(vib)   ...       0.01
freq.    1196.75  E(vib)   ...       0.01
freq.    1204.19  E(vib)   ...       0.01
freq.    1272.45  E(vib)   ...       0.01
freq.    1288.08  E(vib)   ...       0.01
freq.    1304.28  E(vib)   ...       0.01
freq.    1320.34  E(vib)   ...       0.01
freq.    1332.76  E(vib)   ...       0.01
freq.    1353.02  E(vib)   ...       0.01
freq.    1405.96  E(vib)   ...       0.00
freq.    1447.38  E(vib)   ...       0.00
freq.    1467.56  E(vib)   ...       0.00
freq.    1470.08  E(vib)   ...       0.00
freq.    1471.51  E(vib)   ...       0.00
freq.    1486.47  E(vib)   ...       0.00
freq.    1532.80  E(vib)   ...       0.00
freq.    1560.37  E(vib)   ...       0.00
freq.    1567.38  E(vib)   ...       0.00
freq.    1629.21  E(vib)   ...       0.00
freq.    1645.71  E(vib)   ...       0.00
freq.    1672.13  E(vib)   ...       0.00
freq.    3028.88  E(vib)   ...       0.00
freq.    3095.67  E(vib)   ...       0.00
freq.    3152.23  E(vib)   ...       0.00
freq.    3153.23  E(vib)   ...       0.00
freq.    3159.45  E(vib)   ...       0.00
freq.    3170.64  E(vib)   ...       0.00
freq.    3174.57  E(vib)   ...       0.00
freq.    3188.41  E(vib)   ...       0.00
freq.    3192.35  E(vib)   ...       0.00
freq.    3203.93  E(vib)   ...       0.00
freq.    3222.62  E(vib)   ...       0.00

------------
INNER ENERGY
------------

The inner energy is: U= E(el) + E(ZPE) + E(vib) + E(rot) + E(trans)
    E(el)   - is the total energy from the electronic structure calculation
              = E(kin-el) + E(nuc-el) + E(el-el) + E(nuc-nuc)
    E(ZPE)  - the the zero temperature vibrational energy from the frequency calculation
    E(vib)  - the the finite temperature correction to E(ZPE) due to population
              of excited vibrational states
    E(rot)  - is the rotational thermal energy
    E(trans)- is the translational thermal energy

Summary of contributions to the inner energy U:
Electronic energy                ...   -652.09103235 Eh
Zero point energy                ...      0.20549553 Eh     128.95 kcal/mol
Thermal vibrational correction   ...      0.00947232 Eh       5.94 kcal/mol
Thermal rotational correction    ...      0.00141627 Eh       0.89 kcal/mol
Thermal translational correction ...      0.00141627 Eh       0.89 kcal/mol
-----------------------------------------------------------------------
Total thermal energy                   -651.87323195 Eh

Summary of corrections to the electronic energy:
(perhaps to be used in another calculation)
Total thermal correction                  0.01230486 Eh       7.72 kcal/mol
Non-thermal (ZPE) correction              0.20549553 Eh     128.95 kcal/mol
-----------------------------------------------------------------------
Total correction                          0.21780039 Eh     136.67 kcal/mol

--------
ENTHALPY
--------

The enthalpy is H = U + kB*T
                kB is Boltzmann's constant
Total free energy                 ...   -651.87323195 Eh
Thermal Enthalpy correction       ...      0.00094421 Eh       0.59 kcal/mol
-----------------------------------------------------------------------
Total Enthalpy                    ...   -651.87228774 Eh

Note: Only C1 symmetry has been detected, increase convergence thresholds
      if your molecule has a higher symmetry. Symmetry factor of 1.0 is
      used for the rotational entropy correction.

Note: Rotational entropy computed according to Herzberg
Infrared and Raman Spectra, Chapter V,1, Van Nostrand Reinhold, 1945
Point Group:  C1, Symmetry Number:   1
Rotational constants in cm-1:     0.087803     0.007977     0.007396

Vibrational entropy computed according to the QRRHO of S. Grimme
Chem.Eur.J. 2012 18 9955

-------
ENTROPY
-------

The entropy contributions are T*S = T*(S(el)+S(vib)+S(rot)+S(trans))
     S(el)   - electronic entropy
     S(vib)  - vibrational entropy
     S(rot)  - rotational entropy
     S(trans)- translational entropy
The entropies will be listed as multiplied by the temperature to get
units of energy

Electronic entropy                ...      0.00000000 Eh      0.00 kcal/mol
Vibrational entropy               ...      0.01602209 Eh     10.05 kcal/mol

                             ****ORCA TERMINATED NORMALLY****
TOTAL RUN TIME: 0 days 0 hours 12 minutes 8 seconds 732 msec
