                         Program Version 5.0.4 -  RELEASE  -
|  1> %pal nprocs 24 end
|  2> %maxcore 3500
|  3> ! PBE0 D3BJ def2-TZVP TightSCF OPT FREQ TightOpt
|  4> ! CPCM(dmso)
|  5> %scf
|  6> MaxIter 800
|  7> end
|  8> %geom
|  9> MaxIter 800
| 10> MaxStep 0.2
| 11> end
| 12> *xyz 0 1
| 13>
| 14> C      -0.00000000     -0.54789700     -1.63243500
| 15> C      -0.00000000      0.68123200     -0.96635600
| 16> C      -0.00000000     -1.72233100     -0.87133300
| 17> H       0.00000000      1.60016100     -1.54056900
| 18> H      -0.00000000     -2.68247100     -1.37372700
| 19> C       0.00000000      0.73682600      0.41416300
| 20> C       0.00000000     -1.67232600      0.50839400
| 21> H       0.00000000      1.69484100      0.92403900
| 22> H       0.00000000     -2.58316000      1.09559200
| 23> C       0.00000000     -0.44037900      1.15808800
| 24> O      -0.00000000     -0.44124600      2.50781900
| 25> H      -0.00000000      0.46584700      2.83649800
| 26> C      -0.00000000     -0.60110700     -3.05426000
| 27> C       0.00000000     -0.64249800     -4.25874300
| 28> H       0.00000000     -0.67880500     -5.32511600
| 29> *
| 30>
| 31>                          ****END OF INPUT****
 Total Charge           Charge          ....    0
 Multiplicity           Mult            ....    1
 Number of Electrons    NEL             ....   62
Dispersion correction           -0.013458984
FINAL SINGLE POINT ENERGY      -383.335050901701
Dispersion correction            ... done
                    ***********************HURRAY********************

CARTESIAN COORDINATES (ANGSTROEM)
---------------------------------
  C     -0.000000   -0.547932   -1.632525
  C     -0.000000    0.681265   -0.966387
  C     -0.000000   -1.722494   -0.871361
  H      0.000000    1.600149   -1.540570
  H     -0.000000   -2.682522   -1.373849
  C      0.000000    0.736863    0.414285
  C      0.000000   -1.672431    0.508476
  H      0.000000    1.694897    0.923997
  H      0.000000   -2.583111    1.095801
  C      0.000000   -0.440421    1.158262
  O     -0.000000   -0.441233    2.508059
  H     -0.000000    0.465933    2.836390
  C     -0.000000   -0.601152   -3.054414
  C      0.000000   -0.642449   -4.258894
  H      0.000000   -0.678675   -5.325216

 Multiplicity           Mult            ....    1
 Number of Electrons    NEL             ....   62
 Basis Dimension        Dim             ....  315

ORBITAL ENERGIES
----------------

  NO   OCC          E(Eh)            E(eV)
   0   2.0000     -19.244400      -523.6667
   1   2.0000     -10.297931      -280.2209
   2   2.0000     -10.253049      -278.9997
   3   2.0000     -10.240640      -278.6620
   4   2.0000     -10.240092      -278.6471
   5   2.0000     -10.236019      -278.5362
   6   2.0000     -10.231987      -278.4265
   7   2.0000     -10.229949      -278.3711
   8   2.0000     -10.222903      -278.1793
   9   2.0000      -1.103833       -30.0368
  10   2.0000      -0.898545       -24.4507
  11   2.0000      -0.811489       -22.0817
  12   2.0000      -0.785490       -21.3743
  13   2.0000      -0.753325       -20.4990
  14   2.0000      -0.662192       -18.0192
  15   2.0000      -0.643445       -17.5090
  16   2.0000      -0.573095       -15.5947
  17   2.0000      -0.568976       -15.4826
  18   2.0000      -0.521698       -14.1961
  19   2.0000      -0.502720       -13.6797
  20   2.0000      -0.461159       -12.5488
  21   2.0000      -0.444715       -12.1013
  22   2.0000      -0.443720       -12.0742
  23   2.0000      -0.425982       -11.5916
  24   2.0000      -0.401122       -10.9151
  25   2.0000      -0.387602       -10.5472
  26   2.0000      -0.361333        -9.8324
  27   2.0000      -0.315992        -8.5986
  28   2.0000      -0.300278        -8.1710
  29   2.0000      -0.281654        -7.6642
  30   2.0000      -0.236313        -6.4304
  31   0.0000      -0.028469        -0.7747
  32   0.0000      -0.017640        -0.4800
  33   0.0000       0.040748         1.1088
  34   0.0000       0.061158         1.6642
  35   0.0000       0.070760         1.9255

MULLIKEN ATOMIC CHARGES
-----------------------
   0 C :   -0.030209
   1 C :   -0.203051
   2 C :   -0.189417
   3 H :    0.159480
   4 H :    0.155763
   5 C :   -0.265655
   6 C :   -0.271614
   7 H :    0.162311
   8 H :    0.147900
   9 C :    0.305835
  10 O :   -0.422103
  11 H :    0.371320
  12 C :    0.046270
  13 C :   -0.188425
  14 H :    0.221593
Sum of atomic charges:   -0.0000000

LOEWDIN ATOMIC CHARGES
----------------------
   0 C :   -0.172208
   1 C :   -0.089312
   2 C :   -0.089131
   3 H :    0.162430
   4 H :    0.162266
   5 C :   -0.133028
   6 C :   -0.124059
   7 H :    0.160991
   8 H :    0.159424
   9 C :   -0.284315
  10 O :    0.093210
  11 H :    0.211088
  12 C :   -0.089867
  13 C :   -0.107301
  14 H :    0.139812

  Mayer bond orders larger than 0.100000
B(  0-C ,  1-C ) :   1.3466 B(  0-C ,  2-C ) :   1.3402 B(  0-C , 12-C ) :   1.1324
B(  0-C , 13-C ) :  -0.1633 B(  1-C ,  3-H ) :   0.9659 B(  1-C ,  5-C ) :   1.4283
B(  2-C ,  4-H ) :   0.9807 B(  2-C ,  6-C ) :   1.4763 B(  5-C ,  7-H ) :   0.9600
B(  5-C ,  9-C ) :   1.3384 B(  6-C ,  8-H ) :   0.9803 B(  6-C ,  9-C ) :   1.3513
B(  9-C , 10-O ) :   1.1470 B( 10-O , 11-H ) :   0.8480 B( 12-C , 13-C ) :   2.6525
B( 13-C , 14-H ) :   0.9715

Dispersion correction           -0.013458594
FINAL SINGLE POINT ENERGY      -383.335051097367

DIPOLE MOMENT
-------------
                                X             Y             Z
Electronic contribution:      0.00000      -0.04456       0.58758
Nuclear contribution   :      0.00000       0.80259       0.10244
                        -----------------------------------------
Total Dipole Moment    :      0.00000       0.75803       0.69002
                        -----------------------------------------
Magnitude (a.u.)       :      1.02505
Magnitude (Debye)      :      2.60547

Dispersion correction in the Hessian             ... done   (      0.2 sec)

VIBRATIONAL FREQUENCIES
-----------------------

Scaling factor for frequencies =  1.000000000  (already applied!)

   0:         0.00 cm**-1
   1:         0.00 cm**-1
   2:         0.00 cm**-1
   3:         0.00 cm**-1
   4:         0.00 cm**-1
   5:         0.00 cm**-1
   6:       104.30 cm**-1
   7:       150.60 cm**-1
   8:       259.21 cm**-1
   9:       386.61 cm**-1
  10:       407.49 cm**-1
  11:       420.76 cm**-1
  12:       424.15 cm**-1
  13:       471.00 cm**-1
  14:       541.70 cm**-1
  15:       557.12 cm**-1
  16:       634.20 cm**-1
  17:       659.59 cm**-1
  18:       702.06 cm**-1
  19:       721.88 cm**-1
  20:       746.67 cm**-1
  21:       830.76 cm**-1
  22:       859.62 cm**-1
  23:       861.16 cm**-1
  24:       968.83 cm**-1
  25:       978.94 cm**-1
  26:      1032.43 cm**-1
  27:      1125.37 cm**-1
  28:      1186.31 cm**-1
  29:      1199.35 cm**-1
  30:      1237.71 cm**-1
  31:      1313.24 cm**-1
  32:      1327.31 cm**-1
  33:      1382.13 cm**-1
  34:      1472.11 cm**-1
  35:      1549.19 cm**-1
  36:      1639.80 cm**-1
  37:      1669.74 cm**-1
  38:      2208.13 cm**-1
  39:      3191.42 cm**-1
  40:      3203.15 cm**-1
  41:      3212.70 cm**-1
  42:      3217.25 cm**-1
  43:      3449.91 cm**-1
  44:      3814.65 cm**-1

IR SPECTRUM
-----------

 Mode   freq       eps      Int      T**2         TX        TY        TZ
       cm**-1   L/(mol*cm) km/mol    a.u.
----------------------------------------------------------------------------
  6:    104.30   0.000221    1.12  0.000661  ( 0.025713 -0.000002 -0.000000)
  7:    150.60   0.000416    2.10  0.000862  ( 0.000000  0.026093 -0.013458)
  8:    259.21   0.000606    3.06  0.000729  (-0.027001  0.000001 -0.000002)
  9:    386.61   0.035705  180.44  0.028820  (-0.169766 -0.000000 -0.000000)
 10:    407.49   0.003180   16.07  0.002435  (-0.000000 -0.017455 -0.046159)
 11:    420.76   0.000581    2.94  0.000431  (-0.020755  0.000002 -0.000001)
 12:    424.15   0.000707    3.57  0.000520  (-0.000001 -0.001558  0.022760)
 13:    471.00   0.002980   15.06  0.001974  ( 0.044431 -0.000001  0.000001)
 14:    541.70   0.001881    9.51  0.001084  ( 0.000000  0.030482 -0.012433)
 15:    557.12   0.003428   17.32  0.001920  (-0.043819 -0.000001  0.000000)
 16:    634.20   0.016288   82.31  0.008015  ( 0.089525  0.000001 -0.000000)
 17:    659.59   0.001444    7.30  0.000683  (-0.000000  0.024044 -0.010248)
 18:    702.06   0.012735   64.36  0.005661  ( 0.000000  0.075236 -0.000425)
 19:    721.88   0.006292   31.80  0.002720  (-0.000000 -0.000176 -0.052151)
 20:    746.67   0.000061    0.31  0.000025  (-0.005043 -0.000000 -0.000004)
 21:    830.76   0.000771    3.90  0.000290  ( 0.017021 -0.000001  0.000001)
 22:    859.62   0.021267  107.48  0.007721  ( 0.087867 -0.000000 -0.000002)
 23:    861.16   0.002934   14.82  0.001063  (-0.000004 -0.001983 -0.032544)
 24:    968.83   0.000162    0.82  0.000052  ( 0.007230 -0.000001  0.000001)
 25:    978.94   0.000021    0.11  0.000007  (-0.002596 -0.000002 -0.000001)
 26:   1032.43   0.000387    1.96  0.000117  ( 0.000000 -0.002231 -0.010588)
 27:   1125.37   0.004724   23.87  0.001310  (-0.000000 -0.032859 -0.015174)
 28:   1186.31   0.020090  101.53  0.005285  (-0.000000 -0.004938 -0.072529)
 29:   1199.35   0.046364  234.31  0.012064  (-0.000000  0.008755 -0.109486)
 30:   1237.71   0.000258    1.30  0.000065  ( 0.000000 -0.001677 -0.007884)
 31:   1313.24   0.049410  249.70  0.011741  ( 0.000000 -0.007062 -0.108127)
 32:   1327.31   0.000463    2.34  0.000109  ( 0.000000 -0.010387  0.000983)
 33:   1382.13   0.007634   38.58  0.001724  (-0.000000  0.003371  0.041379)
 34:   1472.11   0.005097   25.76  0.001081  ( 0.000000 -0.002461 -0.032780)
 35:   1549.19   0.046739  236.20  0.009415  ( 0.000000  0.003208  0.096978)
 36:   1639.80   0.006197   31.32  0.001179  (-0.000000 -0.018731  0.028784)
 37:   1669.74   0.039513  199.68  0.007385  ( 0.000000 -0.008869 -0.085476)
 38:   2208.13   0.017711   89.51  0.002503  (-0.000000 -0.002337 -0.049976)
 39:   3191.42   0.001800    9.10  0.000176  ( 0.000000 -0.001157 -0.013215)
 40:   3203.15   0.000862    4.36  0.000084  ( 0.000000 -0.002713 -0.008755)
 41:   3212.70   0.000589    2.98  0.000057  (-0.000000 -0.007552  0.000394)
 42:   3217.25   0.000502    2.54  0.000049  ( 0.000000 -0.005466  0.004343)
 43:   3449.91   0.045646  230.68  0.004129  (-0.000000 -0.002523 -0.064207)
 44:   3814.65   0.046641  235.71  0.003816  ( 0.000000 -0.039091 -0.047827)

--------------------------
THERMOCHEMISTRY AT 298.15K
--------------------------

Temperature         ... 298.15 K
Pressure            ... 1.00 atm
Total Mass          ... 118.13 AMU

Throughout the following assumptions are being made:
  (1) The electronic state is orbitally nondegenerate
  (2) There are no thermally accessible electronically excited states
  (3) Hindered rotations indicated by low frequency modes are not
      treated as such but are treated as vibrations and this may
      cause some error
  (4) All equations used are the standard statistical mechanics
      equations for an ideal gas
  (5) All vibrations are strictly harmonic

freq.     104.30  E(vib)   ...       0.46
freq.     150.60  E(vib)   ...       0.40
freq.     259.21  E(vib)   ...       0.30
freq.     386.61  E(vib)   ...       0.20
freq.     407.49  E(vib)   ...       0.19
freq.     420.76  E(vib)   ...       0.18
freq.     424.15  E(vib)   ...       0.18
freq.     471.00  E(vib)   ...       0.15
freq.     541.70  E(vib)   ...       0.12
freq.     557.12  E(vib)   ...       0.12
freq.     634.20  E(vib)   ...       0.09
freq.     659.59  E(vib)   ...       0.08
freq.     702.06  E(vib)   ...       0.07
freq.     721.88  E(vib)   ...       0.07
freq.     746.67  E(vib)   ...       0.06
freq.     830.76  E(vib)   ...       0.04
freq.     859.62  E(vib)   ...       0.04
freq.     861.16  E(vib)   ...       0.04
freq.     968.83  E(vib)   ...       0.03
freq.     978.94  E(vib)   ...       0.03
freq.    1032.43  E(vib)   ...       0.02
freq.    1125.37  E(vib)   ...       0.01
freq.    1186.31  E(vib)   ...       0.01
freq.    1199.35  E(vib)   ...       0.01
freq.    1237.71  E(vib)   ...       0.01
freq.    1313.24  E(vib)   ...       0.01
freq.    1327.31  E(vib)   ...       0.01
freq.    1382.13  E(vib)   ...       0.01
freq.    1472.11  E(vib)   ...       0.00
freq.    1549.19  E(vib)   ...       0.00
freq.    1639.80  E(vib)   ...       0.00
freq.    1669.74  E(vib)   ...       0.00
freq.    2208.13  E(vib)   ...       0.00
freq.    3191.42  E(vib)   ...       0.00
freq.    3203.15  E(vib)   ...       0.00
freq.    3212.70  E(vib)   ...       0.00
freq.    3217.25  E(vib)   ...       0.00
freq.    3449.91  E(vib)   ...       0.00
freq.    3814.65  E(vib)   ...       0.00

------------
INNER ENERGY
------------

The inner energy is: U= E(el) + E(ZPE) + E(vib) + E(rot) + E(trans)
    E(el)   - is the total energy from the electronic structure calculation
              = E(kin-el) + E(nuc-el) + E(el-el) + E(nuc-nuc)
    E(ZPE)  - the the zero temperature vibrational energy from the frequency calculation
    E(vib)  - the the finite temperature correction to E(ZPE) due to population
              of excited vibrational states
    E(rot)  - is the rotational thermal energy
    E(trans)- is the translational thermal energy

Summary of contributions to the inner energy U:
Electronic energy                ...   -383.33505110 Eh
Zero point energy                ...      0.11417846 Eh      71.65 kcal/mol
Thermal vibrational correction   ...      0.00467800 Eh       2.94 kcal/mol
Thermal rotational correction    ...      0.00141627 Eh       0.89 kcal/mol
Thermal translational correction ...      0.00141627 Eh       0.89 kcal/mol
-----------------------------------------------------------------------
Total thermal energy                   -383.21336209 Eh

Summary of corrections to the electronic energy:
(perhaps to be used in another calculation)
Total thermal correction                  0.00751055 Eh       4.71 kcal/mol
Non-thermal (ZPE) correction              0.11417846 Eh      71.65 kcal/mol
-----------------------------------------------------------------------
Total correction                          0.12168900 Eh      76.36 kcal/mol

--------
ENTHALPY
--------

The enthalpy is H = U + kB*T
                kB is Boltzmann's constant
Total free energy                 ...   -383.21336209 Eh
Thermal Enthalpy correction       ...      0.00094421 Eh       0.59 kcal/mol
-----------------------------------------------------------------------
Total Enthalpy                    ...   -383.21241788 Eh

Note: Rotational entropy computed according to Herzberg
Infrared and Raman Spectra, Chapter V,1, Van Nostrand Reinhold, 1945
Point Group:  Cs, Symmetry Number:   1
Rotational constants in cm-1:     0.189577     0.033124     0.028197

Vibrational entropy computed according to the QRRHO of S. Grimme
Chem.Eur.J. 2012 18 9955

-------
ENTROPY
-------

The entropy contributions are T*S = T*(S(el)+S(vib)+S(rot)+S(trans))
     S(el)   - electronic entropy
     S(vib)  - vibrational entropy
     S(rot)  - rotational entropy
     S(trans)- translational entropy
The entropies will be listed as multiplied by the temperature to get
units of energy

Electronic entropy                ...      0.00000000 Eh      0.00 kcal/mol
Vibrational entropy               ...      0.00743457 Eh      4.67 kcal/mol
Rotational entropy                ...      0.01358920 Eh      8.53 kcal/mol
Translational entropy             ...      0.01910727 Eh     11.99 kcal/mol
-----------------------------------------------------------------------
Final entropy term                ...      0.04013104 Eh     25.18 kcal/mol

In case the symmetry of your molecule has not been determined correctly
or in case you have a reason to use a different symmetry number we print
out the resulting rotational entropy values for sn=1,12 :
 --------------------------------------------------------
|  sn= 1 | S(rot)=       0.01358920 Eh      8.53 kcal/mol|
|  sn= 2 | S(rot)=       0.01293474 Eh      8.12 kcal/mol|
|  sn= 3 | S(rot)=       0.01255191 Eh      7.88 kcal/mol|
|  sn= 4 | S(rot)=       0.01228029 Eh      7.71 kcal/mol|
|  sn= 5 | S(rot)=       0.01206960 Eh      7.57 kcal/mol|
|  sn= 6 | S(rot)=       0.01189746 Eh      7.47 kcal/mol|
|  sn= 7 | S(rot)=       0.01175191 Eh      7.37 kcal/mol|
|  sn= 8 | S(rot)=       0.01162583 Eh      7.30 kcal/mol|
|  sn= 9 | S(rot)=       0.01151462 Eh      7.23 kcal/mol|
|  sn=10 | S(rot)=       0.01141514 Eh      7.16 kcal/mol|
|  sn=11 | S(rot)=       0.01132515 Eh      7.11 kcal/mol|
|  sn=12 | S(rot)=       0.01124300 Eh      7.06 kcal/mol|
 --------------------------------------------------------

-------------------
GIBBS FREE ENERGY
-------------------

The Gibbs free energy is G = H - T*S

Total enthalpy                    ...   -383.21241788 Eh
Total entropy correction          ...     -0.04013104 Eh    -25.18 kcal/mol
-----------------------------------------------------------------------
Final Gibbs free energy         ...   -383.25254893 Eh

For completeness - the Gibbs free energy minus the electronic energy
G-E(el)                           ...      0.08250217 Eh     51.77 kcal/mol

                             ****ORCA TERMINATED NORMALLY****
TOTAL RUN TIME: 0 days 0 hours 3 minutes 37 seconds 328 msec
