                         Program Version 5.0.4 -  RELEASE  -
|  1> %pal nprocs 24 end
|  2> %maxcore 3500
|  3> ! PBE0 D3BJ def2-TZVP TightSCF OPT FREQ TightOpt
|  4> ! CPCM(dmso)
|  5> %scf
|  6> MaxIter 800
|  7> end
|  8> %geom
|  9> MaxIter 800
| 10> MaxStep 0.2
| 11> end
| 12> *xyz -1 1
| 13>
| 14> C      -0.00000100     -0.55260600     -1.65345800
| 15> C      -0.00000100      0.67358000     -0.96539700
| 16> C      -0.00000100     -1.72764100     -0.88130600
| 17> H      -0.00000100      1.59566000     -1.53926300
| 18> H      -0.00000100     -2.68767500     -1.38909000
| 19> C       0.00000100      0.72659700      0.40872000
| 20> C       0.00000100     -1.68459900      0.49323100
| 21> H       0.00000000      1.68824900      0.91407600
| 22> H       0.00000100     -2.60911400      1.06373100
| 23> C       0.00000100     -0.45197300      1.22384200
| 24> O      -0.00000000     -0.40737800      2.49289300
| 25> C      -0.00000000     -0.60159600     -3.06880200
| 26> C       0.00000000     -0.64223400     -4.27805800
| 27> H       0.00000100     -0.67807100     -5.34366100
| 28> *
| 29>
| 30>                          ****END OF INPUT****
 Total Charge           Charge          ....   -1
 Multiplicity           Mult            ....    1
 Number of Electrons    NEL             ....   62
Dispersion correction           -0.012863963
FINAL SINGLE POINT ENERGY      -382.855311714796
Dispersion correction            ... done
                    ***********************HURRAY********************

CARTESIAN COORDINATES (ANGSTROEM)
---------------------------------
  C     -0.000001   -0.552628   -1.653630
  C     -0.000000    0.673621   -0.965374
  C      0.000000   -1.727753   -0.881297
  H     -0.000000    1.595679   -1.539151
  H      0.000000   -2.687730   -1.389048
  C      0.000001    0.726678    0.408887
  C      0.000001   -1.684696    0.493354
  H      0.000000    1.688382    0.913995
  H      0.000001   -2.609090    1.063917
  C     -0.000000   -0.451968    1.224085
  O     -0.000001   -0.407442    2.493263
  C     -0.000000   -0.601615   -3.069142
  C     -0.000001   -0.642210   -4.278409
  H      0.000000   -0.678030   -5.343991

 Multiplicity           Mult            ....    1
 Number of Electrons    NEL             ....   62
 Basis Dimension        Dim             ....  309

ORBITAL ENERGIES
----------------

  NO   OCC          E(Eh)            E(eV)
   0   2.0000     -19.121242      -520.3155
   1   2.0000     -10.252045      -278.9723
   2   2.0000     -10.223346      -278.1914
   3   2.0000     -10.219807      -278.0951
   4   2.0000     -10.215792      -277.9858
   5   2.0000     -10.215745      -277.9846
   6   2.0000     -10.204826      -277.6874
   7   2.0000     -10.193336      -277.3748
   8   2.0000     -10.193319      -277.3743
   9   2.0000      -0.989021       -26.9126
  10   2.0000      -0.860965       -23.4280
  11   2.0000      -0.778461       -21.1830
  12   2.0000      -0.752988       -20.4898
  13   2.0000      -0.716249       -19.4901
  14   2.0000      -0.607606       -16.5338
  15   2.0000      -0.601487       -16.3673
  16   2.0000      -0.547637       -14.9020
  17   2.0000      -0.505451       -13.7540
  18   2.0000      -0.464655       -12.6439
  19   2.0000      -0.451014       -12.2727
  20   2.0000      -0.413734       -11.2583
  21   2.0000      -0.413626       -11.2553
  22   2.0000      -0.395139       -10.7523
  23   2.0000      -0.366633        -9.9766
  24   2.0000      -0.347159        -9.4467
  25   2.0000      -0.346796        -9.4368
  26   2.0000      -0.284376        -7.7383
  27   2.0000      -0.281523        -7.6606
  28   2.0000      -0.256820        -6.9884
  29   2.0000      -0.226294        -6.1578
  30   2.0000      -0.181750        -4.9457
  31   0.0000       0.003776         0.1027
  32   0.0000       0.009604         0.2613
  33   0.0000       0.051964         1.4140
  34   0.0000       0.080632         2.1941
  35   0.0000       0.097341         2.6488

MULLIKEN ATOMIC CHARGES
-----------------------
   0 C :   -0.057217
   1 C :   -0.216774
   2 C :   -0.216428
   3 H :    0.136203
   4 H :    0.136272
   5 C :   -0.329938
   6 C :   -0.330140
   7 H :    0.102987
   8 H :    0.102970
   9 C :    0.308180
  10 O :   -0.633737
  11 C :    0.054491
  12 C :   -0.270883
  13 H :    0.214015
Sum of atomic charges:   -1.0000000

LOEWDIN ATOMIC CHARGES
----------------------
   0 C :   -0.216402
   1 C :   -0.134231
   2 C :   -0.134207
   3 H :    0.151709
   4 H :    0.151720
   5 C :   -0.180565
   6 C :   -0.180631
   7 H :    0.139222
   8 H :    0.139210
   9 C :   -0.426444
  10 O :   -0.165777
  11 C :   -0.113869
  12 C :   -0.163064
  13 H :    0.133330

  Mayer bond orders larger than 0.100000
B(  0-C ,  1-C ) :   1.2966 B(  0-C ,  2-C ) :   1.2965 B(  0-C , 11-C ) :   1.1327
B(  0-C , 12-C ) :  -0.1396 B(  1-C ,  3-H ) :   0.9707 B(  1-C ,  5-C ) :   1.4706
B(  2-C ,  4-H ) :   0.9707 B(  2-C ,  6-C ) :   1.4703 B(  5-C ,  7-H ) :   0.9898
B(  5-C ,  9-C ) :   1.1852 B(  6-C ,  8-H ) :   0.9898 B(  6-C ,  9-C ) :   1.1852
B(  9-C , 10-O ) :   1.7047 B( 11-C , 12-C ) :   2.6561 B( 12-C , 13-H ) :   0.9740

Dispersion correction           -0.012863117
FINAL SINGLE POINT ENERGY      -382.855311953930

DIPOLE MOMENT
-------------
                                X             Y             Z
Electronic contribution:     -0.00000       0.00237       0.09479
Nuclear contribution   :      0.00000      -0.10365      -3.00738
                        -----------------------------------------
Total Dipole Moment    :     -0.00000      -0.10129      -2.91259
                        -----------------------------------------
Magnitude (a.u.)       :      2.91435
Magnitude (Debye)      :      7.40769

Dispersion correction in the Hessian             ... done   (      0.2 sec)

VIBRATIONAL FREQUENCIES
-----------------------

Scaling factor for frequencies =  1.000000000  (already applied!)

   0:         0.00 cm**-1
   1:         0.00 cm**-1
   2:         0.00 cm**-1
   3:         0.00 cm**-1
   4:         0.00 cm**-1
   5:         0.00 cm**-1
   6:        96.49 cm**-1
   7:       153.20 cm**-1
   8:       232.56 cm**-1
   9:       422.70 cm**-1
  10:       422.74 cm**-1
  11:       441.91 cm**-1
  12:       478.02 cm**-1
  13:       533.39 cm**-1
  14:       541.74 cm**-1
  15:       546.93 cm**-1
  16:       653.46 cm**-1
  17:       691.38 cm**-1
  18:       727.18 cm**-1
  19:       748.53 cm**-1
  20:       807.75 cm**-1
  21:       846.27 cm**-1
  22:       857.27 cm**-1
  23:       964.33 cm**-1
  24:       965.90 cm**-1
  25:       999.88 cm**-1
  26:      1104.35 cm**-1
  27:      1165.88 cm**-1
  28:      1238.80 cm**-1
  29:      1273.73 cm**-1
  30:      1314.51 cm**-1
  31:      1415.16 cm**-1
  32:      1478.43 cm**-1
  33:      1543.66 cm**-1
  34:      1551.69 cm**-1
  35:      1640.63 cm**-1
  36:      2171.29 cm**-1
  37:      3163.03 cm**-1
  38:      3163.26 cm**-1
  39:      3180.96 cm**-1
  40:      3184.34 cm**-1
  41:      3452.73 cm**-1

IR SPECTRUM
-----------

 Mode   freq       eps      Int      T**2         TX        TY        TZ
       cm**-1   L/(mol*cm) km/mol    a.u.
----------------------------------------------------------------------------
  6:     96.49   0.000603    3.05  0.001949  ( 0.044147 -0.000001 -0.000006)
  7:    153.20   0.000013    0.07  0.000026  (-0.000000  0.005131  0.000111)
  8:    232.56   0.001953    9.87  0.002621  ( 0.051194  0.000002  0.000023)
  9:    422.70   0.005520   27.90  0.004075  ( 0.000004  0.002345  0.063795)
 10:    422.74   0.000001    0.00  0.000001  ( 0.000362 -0.000025 -0.000611)
 11:    441.91   0.003260   16.47  0.002302  ( 0.000000  0.047966 -0.001075)
 12:    478.02   0.004757   24.04  0.003106  ( 0.055728 -0.000001  0.000003)
 13:    533.39   0.018324   92.60  0.010721  ( 0.103541  0.000001  0.000017)
 14:    541.74   0.001244    6.29  0.000717  ( 0.000000  0.026748 -0.001066)
 15:    546.93   0.005401   27.29  0.003082  (-0.055513 -0.000000  0.000001)
 16:    653.46   0.001707    8.63  0.000815  ( 0.000000 -0.028537  0.000994)
 17:    691.38   0.013175   66.58  0.005947  ( 0.000000 -0.077082  0.002280)
 18:    727.18   0.011519   58.21  0.004943  (-0.000001  0.002287  0.070272)
 19:    748.53   0.001047    5.29  0.000437  (-0.020893 -0.000001 -0.000002)
 20:    807.75   0.000000    0.00  0.000000  (-0.000258 -0.000001  0.000002)
 21:    846.27   0.000266    1.34  0.000098  (-0.000005 -0.000449 -0.009896)
 22:    857.27   0.022768  115.06  0.008288  ( 0.091038 -0.000001 -0.000007)
 23:    964.33   0.000499    2.52  0.000162  (-0.012713 -0.000001 -0.000001)
 24:    965.90   0.000015    0.07  0.000005  (-0.002181  0.000002 -0.000000)
 25:    999.88   0.003477   17.57  0.001085  ( 0.000000 -0.000865 -0.032931)
 26:   1104.35   0.005786   29.24  0.001635  ( 0.000000 -0.040410  0.001374)
 27:   1165.88   0.035905  181.45  0.009611  (-0.000000  0.003276  0.097979)
 28:   1238.80   0.008349   42.19  0.002103  ( 0.000000 -0.002022 -0.045815)
 29:   1273.73   0.000260    1.32  0.000064  (-0.000000 -0.007943  0.000842)
 30:   1314.51   0.003661   18.50  0.000869  (-0.000000  0.029473 -0.000719)
 31:   1415.16   0.067998  343.63  0.014994  (-0.000000  0.003580  0.122399)
 32:   1478.43   0.003458   17.47  0.000730  ( 0.000000 -0.026981 -0.001356)
 33:   1543.66   0.010397   52.54  0.002102  ( 0.000000 -0.045648  0.004251)
 34:   1551.69   0.205712  1039.59  0.041371  (-0.000000 -0.007615 -0.203257)
 35:   1640.63   0.164507  831.35  0.031291  (-0.000000 -0.006125 -0.176786)
 36:   2171.29   0.104893  530.09  0.015076  (-0.000000 -0.004205 -0.122711)
 37:   3163.03   0.007433   37.56  0.000733  ( 0.000000  0.004346  0.026729)
 38:   3163.26   0.003115   15.74  0.000307  (-0.000000  0.005187 -0.016745)
 39:   3180.96   0.013104   66.22  0.001286  ( 0.000000  0.035839 -0.001067)
 40:   3184.34   0.000686    3.47  0.000067  ( 0.000000 -0.000805  0.008159)
 41:   3452.73   0.064124  324.06  0.005796  (-0.000000 -0.002623 -0.076084)

--------------------------
THERMOCHEMISTRY AT 298.15K
--------------------------

Temperature         ... 298.15 K
Pressure            ... 1.00 atm
Total Mass          ... 117.13 AMU

Throughout the following assumptions are being made:
  (1) The electronic state is orbitally nondegenerate
  (2) There are no thermally accessible electronically excited states
  (3) Hindered rotations indicated by low frequency modes are not
      treated as such but are treated as vibrations and this may
      cause some error
  (4) All equations used are the standard statistical mechanics
      equations for an ideal gas
  (5) All vibrations are strictly harmonic

freq.      96.49  E(vib)   ...       0.47
freq.     153.20  E(vib)   ...       0.40
freq.     232.56  E(vib)   ...       0.32
freq.     422.70  E(vib)   ...       0.18
freq.     422.74  E(vib)   ...       0.18
freq.     441.91  E(vib)   ...       0.17
freq.     478.02  E(vib)   ...       0.15
freq.     533.39  E(vib)   ...       0.13
freq.     541.74  E(vib)   ...       0.12
freq.     546.93  E(vib)   ...       0.12
freq.     653.46  E(vib)   ...       0.08
freq.     691.38  E(vib)   ...       0.07
freq.     727.18  E(vib)   ...       0.06
freq.     748.53  E(vib)   ...       0.06
freq.     807.75  E(vib)   ...       0.05
freq.     846.27  E(vib)   ...       0.04
freq.     857.27  E(vib)   ...       0.04
freq.     964.33  E(vib)   ...       0.03
freq.     965.90  E(vib)   ...       0.03
freq.     999.88  E(vib)   ...       0.02
freq.    1104.35  E(vib)   ...       0.02
freq.    1165.88  E(vib)   ...       0.01
freq.    1238.80  E(vib)   ...       0.01
freq.    1273.73  E(vib)   ...       0.01
freq.    1314.51  E(vib)   ...       0.01
freq.    1415.16  E(vib)   ...       0.00
freq.    1478.43  E(vib)   ...       0.00
freq.    1543.66  E(vib)   ...       0.00
freq.    1551.69  E(vib)   ...       0.00
freq.    1640.63  E(vib)   ...       0.00
freq.    2171.29  E(vib)   ...       0.00
freq.    3163.03  E(vib)   ...       0.00
freq.    3163.26  E(vib)   ...       0.00
freq.    3180.96  E(vib)   ...       0.00
freq.    3184.34  E(vib)   ...       0.00
freq.    3452.73  E(vib)   ...       0.00

------------
INNER ENERGY
------------

The inner energy is: U= E(el) + E(ZPE) + E(vib) + E(rot) + E(trans)
    E(el)   - is the total energy from the electronic structure calculation
              = E(kin-el) + E(nuc-el) + E(el-el) + E(nuc-nuc)
    E(ZPE)  - the the zero temperature vibrational energy from the frequency calculation
    E(vib)  - the the finite temperature correction to E(ZPE) due to population
              of excited vibrational states
    E(rot)  - is the rotational thermal energy
    E(trans)- is the translational thermal energy

Summary of contributions to the inner energy U:
Electronic energy                ...   -382.85531195 Eh
Zero point energy                ...      0.10063590 Eh      63.15 kcal/mol
Thermal vibrational correction   ...      0.00444265 Eh       2.79 kcal/mol
Thermal rotational correction    ...      0.00141627 Eh       0.89 kcal/mol
Thermal translational correction ...      0.00141627 Eh       0.89 kcal/mol
-----------------------------------------------------------------------
Total thermal energy                   -382.74740086 Eh

Summary of corrections to the electronic energy:
(perhaps to be used in another calculation)
Total thermal correction                  0.00727519 Eh       4.57 kcal/mol
Non-thermal (ZPE) correction              0.10063590 Eh      63.15 kcal/mol
-----------------------------------------------------------------------
Total correction                          0.10791109 Eh      67.72 kcal/mol

--------
ENTHALPY
--------

The enthalpy is H = U + kB*T
                kB is Boltzmann's constant
Total free energy                 ...   -382.74740086 Eh
Thermal Enthalpy correction       ...      0.00094421 Eh       0.59 kcal/mol
-----------------------------------------------------------------------
Total Enthalpy                    ...   -382.74645665 Eh

Note: Rotational entropy computed according to Herzberg
Infrared and Raman Spectra, Chapter V,1, Van Nostrand Reinhold, 1945
Point Group:  Cs, Symmetry Number:   1
Rotational constants in cm-1:     0.191098     0.033644     0.028608

Vibrational entropy computed according to the QRRHO of S. Grimme
Chem.Eur.J. 2012 18 9955

-------
ENTROPY
-------

The entropy contributions are T*S = T*(S(el)+S(vib)+S(rot)+S(trans))
     S(el)   - electronic entropy
     S(vib)  - vibrational entropy
     S(rot)  - rotational entropy
     S(trans)- translational entropy
The entropies will be listed as multiplied by the temperature to get
units of energy

Electronic entropy                ...      0.00000000 Eh      0.00 kcal/mol
Vibrational entropy               ...      0.00711285 Eh      4.46 kcal/mol
Rotational entropy                ...      0.01357124 Eh      8.52 kcal/mol
Translational entropy             ...      0.01909514 Eh     11.98 kcal/mol
-----------------------------------------------------------------------
Final entropy term                ...      0.03977923 Eh     24.96 kcal/mol

In case the symmetry of your molecule has not been determined correctly
or in case you have a reason to use a different symmetry number we print
out the resulting rotational entropy values for sn=1,12 :
 --------------------------------------------------------
|  sn= 1 | S(rot)=       0.01357124 Eh      8.52 kcal/mol|
|  sn= 2 | S(rot)=       0.01291678 Eh      8.11 kcal/mol|
|  sn= 3 | S(rot)=       0.01253395 Eh      7.87 kcal/mol|
|  sn= 4 | S(rot)=       0.01226233 Eh      7.69 kcal/mol|
|  sn= 5 | S(rot)=       0.01205164 Eh      7.56 kcal/mol|
|  sn= 6 | S(rot)=       0.01187950 Eh      7.45 kcal/mol|
|  sn= 7 | S(rot)=       0.01173395 Eh      7.36 kcal/mol|
|  sn= 8 | S(rot)=       0.01160787 Eh      7.28 kcal/mol|
|  sn= 9 | S(rot)=       0.01149666 Eh      7.21 kcal/mol|
|  sn=10 | S(rot)=       0.01139718 Eh      7.15 kcal/mol|
|  sn=11 | S(rot)=       0.01130719 Eh      7.10 kcal/mol|
|  sn=12 | S(rot)=       0.01122504 Eh      7.04 kcal/mol|
 --------------------------------------------------------

-------------------
GIBBS FREE ENERGY
-------------------

The Gibbs free energy is G = H - T*S

Total enthalpy                    ...   -382.74645665 Eh
Total entropy correction          ...     -0.03977923 Eh    -24.96 kcal/mol
-----------------------------------------------------------------------
Final Gibbs free energy         ...   -382.78623588 Eh

For completeness - the Gibbs free energy minus the electronic energy
G-E(el)                           ...      0.06907607 Eh     43.35 kcal/mol

                             ****ORCA TERMINATED NORMALLY****
TOTAL RUN TIME: 0 days 0 hours 3 minutes 24 seconds 653 msec
