                         Program Version 5.0.4 -  RELEASE  -
|  1> %pal nprocs 24 end
|  2> %maxcore 3500
|  3> ! PBE0 D3BJ def2-TZVP TightSCF OPT FREQ TightOpt
|  4> ! CPCM(dmso)
|  5> %scf
|  6> MaxIter 800
|  7> end
|  8> %geom
|  9> MaxIter 800
| 10> MaxStep 0.2
| 11> end
| 12> *xyz 0 1
| 13>
| 14> C       0.01358600     -0.52538900     -1.56260500
| 15> C       0.11437900      0.69254600     -0.90643100
| 16> C      -0.09880700     -1.70083800     -0.82526500
| 17> H       0.20109000      1.61288200     -1.47015800
| 18> H      -0.17866400     -2.65569000     -1.33243100
| 19> C       0.10733400      0.73995900      0.47712500
| 20> C      -0.10767900     -1.66123400      0.55395400
| 21> H       0.18849100      1.69116800      0.99266700
| 22> H      -0.19291400     -2.57156100      1.13513800
| 23> C      -0.00384300     -0.43640500      1.21128000
| 24> O      -0.01545800     -0.44883400      2.55923900
| 25> H       0.06832200      0.45062300      2.89857200
| 26> C      -0.00169100     -0.60212300     -3.05204300
| 27> F       0.26332200      0.57350000     -3.63472800
| 28> F       0.89868400     -1.48388200     -3.52799600
| 29> F      -1.19736200     -1.00745700     -3.52968600
| 30> *
| 31>
| 32>                          ****END OF INPUT****
 Total Charge           Charge          ....    0
 Multiplicity           Mult            ....    1
 Number of Electrons    NEL             ....   82
Dispersion correction           -0.013982875
FINAL SINGLE POINT ENERGY      -644.134106005816
Dispersion correction            ... done
Dispersion correction           -0.013981664
FINAL SINGLE POINT ENERGY      -644.134106451044
Dispersion correction            ... done
                    ***********************HURRAY********************

CARTESIAN COORDINATES (ANGSTROEM)
---------------------------------
  C      0.013186   -0.525109   -1.562830
  C      0.115121    0.692917   -0.906199
  C     -0.100066   -1.700719   -0.825223
  H      0.202515    1.613256   -1.469755
  H     -0.180633   -2.655215   -1.332899
  C      0.108121    0.740153    0.477590
  C     -0.108752   -1.661336    0.554172
  H      0.189954    1.691190    0.993248
  H     -0.194561   -2.571414    1.135550
  C     -0.003964   -0.436447    1.211873
  O     -0.015697   -0.448961    2.559866
  H      0.069555    0.450474    2.898782
  C     -0.001662   -0.602335   -3.052757
  F      0.258588    0.574243   -3.635915
  F      0.902558   -1.480508   -3.528413
  F     -1.195472   -1.012925   -3.530457

 Multiplicity           Mult            ....    1
 Number of Electrons    NEL             ....   82
 Basis Dimension        Dim             ....  371

ORBITAL ENERGIES
----------------

  NO   OCC          E(Eh)            E(eV)
   0   2.0000     -24.807811      -675.0549
   1   2.0000     -24.803222      -674.9300
   2   2.0000     -24.801822      -674.8919
   3   2.0000     -19.246281      -523.7179
   4   2.0000     -10.473099      -284.9875
   5   2.0000     -10.301478      -280.3175
   6   2.0000     -10.248313      -278.8708
   7   2.0000     -10.245632      -278.7978
   8   2.0000     -10.245146      -278.7846
   9   2.0000     -10.234581      -278.4971
  10   2.0000     -10.233358      -278.4638
  11   2.0000      -1.352833       -36.8125
  12   2.0000      -1.263934       -34.3934
  13   2.0000      -1.257987       -34.2316
  14   2.0000      -1.106304       -30.1041
  15   2.0000      -0.903710       -24.5912
  16   2.0000      -0.810053       -22.0427
  17   2.0000      -0.789968       -21.4961
  18   2.0000      -0.727295       -19.7907
  19   2.0000      -0.665605       -18.1120
  20   2.0000      -0.651204       -17.7202
  21   2.0000      -0.616049       -16.7635
  22   2.0000      -0.614569       -16.7233
  23   2.0000      -0.591234       -16.0883
  24   2.0000      -0.573719       -15.6117
  25   2.0000      -0.512188       -13.9373
  26   2.0000      -0.494431       -13.4542
  27   2.0000      -0.491156       -13.3650
  28   2.0000      -0.476710       -12.9719
  29   2.0000      -0.456932       -12.4338
  30   2.0000      -0.455776       -12.4023
  31   2.0000      -0.454577       -12.3697
  32   2.0000      -0.443517       -12.0687
  33   2.0000      -0.442607       -12.0439
  34   2.0000      -0.432587       -11.7713
  35   2.0000      -0.414714       -11.2849
  36   2.0000      -0.387668       -10.5490
  37   2.0000      -0.372342       -10.1319
  38   2.0000      -0.363564        -9.8931
  39   2.0000      -0.284814        -7.7502
  40   2.0000      -0.255278        -6.9465
  41   0.0000      -0.021345        -0.5808
  42   0.0000      -0.017320        -0.4713
  43   0.0000       0.061027         1.6606
  44   0.0000       0.073654         2.0042
  45   0.0000       0.097262         2.6466

MULLIKEN ATOMIC CHARGES
-----------------------
   0 C :    0.080722
   1 C :   -0.209570
   2 C :   -0.226177
   3 H :    0.168759
   4 H :    0.163508
   5 C :   -0.226877
   6 C :   -0.227791
   7 H :    0.165387
   8 H :    0.153426
   9 C :    0.270846
  10 O :   -0.418814
  11 H :    0.372475
  12 C :    0.461472
  13 F :   -0.171516
  14 F :   -0.177683
  15 F :   -0.178168
Sum of atomic charges:   -0.0000000

LOEWDIN ATOMIC CHARGES
----------------------
   0 C :   -0.161078
   1 C :   -0.096594
   2 C :   -0.094815
   3 H :    0.163158
   4 H :    0.165255
   5 C :   -0.128162
   6 C :   -0.117268
   7 H :    0.161663
   8 H :    0.160431
   9 C :   -0.280428
  10 O :    0.097455
  11 H :    0.212177
  12 C :   -0.644605
  13 F :    0.200752
  14 F :    0.183875
  15 F :    0.178182

  Mayer bond orders larger than 0.100000
B(  0-C ,  1-C ) :   1.3388 B(  0-C ,  2-C ) :   1.3239 B(  0-C , 12-C ) :   1.0220
B(  1-C ,  3-H ) :   0.9519 B(  1-C ,  5-C ) :   1.3975 B(  2-C ,  4-H ) :   0.9694
B(  2-C ,  6-C ) :   1.4711 B(  5-C ,  7-H ) :   0.9599 B(  5-C ,  9-C ) :   1.3551
B(  6-C ,  8-H ) :   0.9756 B(  6-C ,  9-C ) :   1.3527 B(  9-C , 10-O ) :   1.1522
B( 10-O , 11-H ) :   0.8470 B( 12-C , 13-F ) :   1.1470 B( 12-C , 14-F ) :   1.1421
B( 12-C , 15-F ) :   1.1442

Dispersion correction           -0.013981130
FINAL SINGLE POINT ENERGY      -644.134106739664

DIPOLE MOMENT
-------------
                                X             Y             Z
Electronic contribution:     -0.03355      -0.60154     -12.95901
Nuclear contribution   :      0.11959       1.42545      14.52067
                        -----------------------------------------
Total Dipole Moment    :      0.08603       0.82392       1.56166
                        -----------------------------------------
Magnitude (a.u.)       :      1.76777
Magnitude (Debye)      :      4.49333

Dispersion correction in the Hessian             ... done   (      0.2 sec)

VIBRATIONAL FREQUENCIES
-----------------------

Scaling factor for frequencies =  1.000000000  (already applied!)

   0:         0.00 cm**-1
   1:         0.00 cm**-1
   2:         0.00 cm**-1
   3:         0.00 cm**-1
   4:         0.00 cm**-1
   5:         0.00 cm**-1
   6:        14.67 cm**-1
   7:        96.02 cm**-1
   8:       177.39 cm**-1
   9:       233.66 cm**-1
  10:       312.83 cm**-1
  11:       374.79 cm**-1
  12:       404.86 cm**-1
  13:       414.23 cm**-1
  14:       426.44 cm**-1
  15:       443.30 cm**-1
  16:       518.69 cm**-1
  17:       581.85 cm**-1
  18:       598.84 cm**-1
  19:       609.61 cm**-1
  20:       649.82 cm**-1
  21:       754.78 cm**-1
  22:       763.82 cm**-1
  23:       832.76 cm**-1
  24:       858.76 cm**-1
  25:       860.85 cm**-1
  26:       968.05 cm**-1
  27:       982.48 cm**-1
  28:      1029.09 cm**-1
  29:      1088.11 cm**-1
  30:      1104.74 cm**-1
  31:      1123.25 cm**-1
  32:      1159.60 cm**-1
  33:      1191.41 cm**-1
  34:      1202.91 cm**-1
  35:      1317.27 cm**-1
  36:      1335.88 cm**-1
  37:      1350.78 cm**-1
  38:      1396.31 cm**-1
  39:      1480.89 cm**-1
  40:      1566.05 cm**-1
  41:      1656.88 cm**-1
  42:      1676.62 cm**-1
  43:      3196.46 cm**-1
  44:      3203.67 cm**-1
  45:      3218.43 cm**-1
  46:      3224.00 cm**-1
  47:      3815.21 cm**-1

IR SPECTRUM
-----------

 Mode   freq       eps      Int      T**2         TX        TY        TZ
       cm**-1   L/(mol*cm) km/mol    a.u.
----------------------------------------------------------------------------
  6:     14.67   0.000116    0.59  0.002468  (-0.049602 -0.001473 -0.002441)
  7:     96.02   0.000017    0.09  0.000055  (-0.007422  0.000535 -0.000197)
  8:    177.39   0.000220    1.11  0.000386  (-0.003048 -0.017516 -0.008382)
  9:    233.66   0.000012    0.06  0.000016  (-0.001862 -0.000150 -0.003526)
 10:    312.83   0.000889    4.49  0.000887  (-0.001029  0.003139  0.029600)
 11:    374.79   0.002143   10.83  0.001784  ( 0.004051  0.015407  0.039121)
 12:    404.86   0.019147   96.76  0.014759  (-0.120729  0.011497 -0.007142)
 13:    414.23   0.014975   75.68  0.011282  ( 0.105653 -0.010265 -0.003709)
 14:    426.44   0.002682   13.55  0.001962  (-0.044219  0.002630 -0.000247)
 15:    443.30   0.001257    6.35  0.000885  ( 0.001244 -0.011596  0.027367)
 16:    518.69   0.002161   10.92  0.001300  ( 0.035758 -0.003741 -0.002787)
 17:    581.85   0.000004    0.02  0.000002  ( 0.000396  0.001286  0.000655)
 18:    598.84   0.005069   25.62  0.002641  (-0.050245  0.005074  0.009548)
 19:    609.61   0.011295   57.08  0.005782  ( 0.002348  0.000437  0.076003)
 20:    649.82   0.000450    2.27  0.000216  ( 0.000749  0.013632 -0.005444)
 21:    754.78   0.000113    0.57  0.000047  ( 0.003808 -0.000633 -0.005635)
 22:    763.82   0.000038    0.19  0.000016  (-0.000392  0.000702  0.003882)
 23:    832.76   0.001309    6.62  0.000491  ( 0.021898 -0.003269  0.000670)
 24:    858.76   0.001943    9.82  0.000706  ( 0.000652  0.000618 -0.026558)
 25:    860.85   0.024718  124.91  0.008960  ( 0.094126 -0.008741  0.004914)
 26:    968.05   0.001768    8.94  0.000570  ( 0.023561 -0.002726  0.002741)
 27:    982.48   0.000069    0.35  0.000022  (-0.004555 -0.000356 -0.001033)
 28:   1029.09   0.006010   30.37  0.001822  (-0.003201 -0.007940 -0.041822)
 29:   1088.11   0.038913  196.65  0.011160  ( 0.036666  0.024055  0.096110)
 30:   1104.74   0.077544  391.87  0.021904  ( 0.145968 -0.020603 -0.013163)
 31:   1123.25   0.041229  208.35  0.011454  ( 0.010507  0.103112  0.026680)
 32:   1159.60   0.034245  173.06  0.009216  (-0.008674 -0.093763 -0.018687)
 33:   1191.41   0.026985  136.37  0.007068  ( 0.004370  0.013201 -0.082915)
 34:   1202.91   0.049304  249.16  0.012791  ( 0.003342  0.023428 -0.110592)
 35:   1317.27   0.040189  203.10  0.009521  (-0.000801  0.001678  0.097558)
 36:   1335.88   0.102620  518.60  0.023972  ( 0.005090  0.016505 -0.153863)
 37:   1350.78   0.024657  124.61  0.005696  (-0.000417 -0.024157 -0.071503)
 38:   1396.31   0.006240   31.53  0.001394  ( 0.000379  0.009940  0.035994)
 39:   1480.89   0.004184   21.14  0.000882  ( 0.001604  0.019608  0.022240)
 40:   1566.05   0.012389   62.61  0.002469  ( 0.000234  0.000707 -0.049680)
 41:   1656.88   0.012799   64.68  0.002411  (-0.002982 -0.027812  0.040351)
 42:   1676.62   0.035534  179.57  0.006614  ( 0.000050  0.013047  0.080272)
 43:   3196.46   0.001014    5.12  0.000099  ( 0.000166  0.001877  0.009768)
 44:   3203.67   0.000365    1.85  0.000036  (-0.000284 -0.001920 -0.005639)
 45:   3218.43   0.000296    1.50  0.000029  (-0.000455 -0.003878  0.003668)
 46:   3224.00   0.000063    0.32  0.000006  ( 0.000063  0.002024  0.001421)
 47:   3815.21   0.041324  208.84  0.003380  ( 0.003603  0.038642  0.043289)

--------------------------
THERMOCHEMISTRY AT 298.15K
--------------------------

Temperature         ... 298.15 K
Pressure            ... 1.00 atm
Total Mass          ... 162.11 AMU

Throughout the following assumptions are being made:
  (1) The electronic state is orbitally nondegenerate
  (2) There are no thermally accessible electronically excited states
  (3) Hindered rotations indicated by low frequency modes are not
      treated as such but are treated as vibrations and this may
      cause some error
  (4) All equations used are the standard statistical mechanics
      equations for an ideal gas
  (5) All vibrations are strictly harmonic

freq.      14.67  E(vib)   ...       0.57
freq.      96.02  E(vib)   ...       0.47
freq.     177.39  E(vib)   ...       0.37
freq.     233.66  E(vib)   ...       0.32
freq.     312.83  E(vib)   ...       0.25
freq.     374.79  E(vib)   ...       0.21
freq.     404.86  E(vib)   ...       0.19
freq.     414.23  E(vib)   ...       0.19
freq.     426.44  E(vib)   ...       0.18
freq.     443.30  E(vib)   ...       0.17
freq.     518.69  E(vib)   ...       0.13
freq.     581.85  E(vib)   ...       0.11
freq.     598.84  E(vib)   ...       0.10
freq.     609.61  E(vib)   ...       0.10
freq.     649.82  E(vib)   ...       0.08
freq.     754.78  E(vib)   ...       0.06
freq.     763.82  E(vib)   ...       0.06
freq.     832.76  E(vib)   ...       0.04
freq.     858.76  E(vib)   ...       0.04
freq.     860.85  E(vib)   ...       0.04
freq.     968.05  E(vib)   ...       0.03
freq.     982.48  E(vib)   ...       0.02
freq.    1029.09  E(vib)   ...       0.02
freq.    1088.11  E(vib)   ...       0.02
freq.    1104.74  E(vib)   ...       0.02
freq.    1123.25  E(vib)   ...       0.01
freq.    1159.60  E(vib)   ...       0.01
freq.    1191.41  E(vib)   ...       0.01
freq.    1202.91  E(vib)   ...       0.01
freq.    1317.27  E(vib)   ...       0.01
freq.    1335.88  E(vib)   ...       0.01
freq.    1350.78  E(vib)   ...       0.01
freq.    1396.31  E(vib)   ...       0.00
freq.    1480.89  E(vib)   ...       0.00
freq.    1566.05  E(vib)   ...       0.00
freq.    1656.88  E(vib)   ...       0.00
freq.    1676.62  E(vib)   ...       0.00
freq.    3196.46  E(vib)   ...       0.00
freq.    3203.67  E(vib)   ...       0.00
freq.    3218.43  E(vib)   ...       0.00
freq.    3224.00  E(vib)   ...       0.00
freq.    3815.21  E(vib)   ...       0.00

------------
INNER ENERGY
------------

The inner energy is: U= E(el) + E(ZPE) + E(vib) + E(rot) + E(trans)
    E(el)   - is the total energy from the electronic structure calculation
              = E(kin-el) + E(nuc-el) + E(el-el) + E(nuc-nuc)
    E(ZPE)  - the the zero temperature vibrational energy from the frequency calculation
    E(vib)  - the the finite temperature correction to E(ZPE) due to population
              of excited vibrational states
    E(rot)  - is the rotational thermal energy
    E(trans)- is the translational thermal energy

Summary of contributions to the inner energy U:
Electronic energy                ...   -644.13410674 Eh
Zero point energy                ...      0.10984423 Eh      68.93 kcal/mol
Thermal vibrational correction   ...      0.00615366 Eh       3.86 kcal/mol
Thermal rotational correction    ...      0.00141627 Eh       0.89 kcal/mol
Thermal translational correction ...      0.00141627 Eh       0.89 kcal/mol
-----------------------------------------------------------------------
Total thermal energy                   -644.01527630 Eh

Summary of corrections to the electronic energy:
(perhaps to be used in another calculation)
Total thermal correction                  0.00898620 Eh       5.64 kcal/mol
Non-thermal (ZPE) correction              0.10984423 Eh      68.93 kcal/mol
-----------------------------------------------------------------------
Total correction                          0.11883044 Eh      74.57 kcal/mol

--------
ENTHALPY
--------

The enthalpy is H = U + kB*T
                kB is Boltzmann's constant
Total free energy                 ...   -644.01527630 Eh
Thermal Enthalpy correction       ...      0.00094421 Eh       0.59 kcal/mol
-----------------------------------------------------------------------
Total Enthalpy                    ...   -644.01433209 Eh

Note: Only C1 symmetry has been detected, increase convergence thresholds
      if your molecule has a higher symmetry. Symmetry factor of 1.0 is
      used for the rotational entropy correction.

Note: Rotational entropy computed according to Herzberg
Infrared and Raman Spectra, Chapter V,1, Van Nostrand Reinhold, 1945
Point Group:  C1, Symmetry Number:   1
Rotational constants in cm-1:     0.095210     0.021013     0.018909

Vibrational entropy computed according to the QRRHO of S. Grimme
Chem.Eur.J. 2012 18 9955

-------
ENTROPY
-------

The entropy contributions are T*S = T*(S(el)+S(vib)+S(rot)+S(trans))
     S(el)   - electronic entropy
     S(vib)  - vibrational entropy
     S(rot)  - rotational entropy
     S(trans)- translational entropy
The entropies will be listed as multiplied by the temperature to get
units of energy

Electronic entropy                ...      0.00000000 Eh      0.00 kcal/mol
Vibrational entropy               ...      0.01054849 Eh      6.62 kcal/mol
Rotational entropy                ...      0.01431783 Eh      8.98 kcal/mol
Translational entropy             ...      0.01955545 Eh     12.27 kcal/mol
-----------------------------------------------------------------------
Final entropy term                ...      0.04442178 Eh     27.88 kcal/mol

In case the symmetry of your molecule has not been determined correctly
or in case you have a reason to use a different symmetry number we print
out the resulting rotational entropy values for sn=1,12 :
 --------------------------------------------------------
|  sn= 1 | S(rot)=       0.01431783 Eh      8.98 kcal/mol|
|  sn= 2 | S(rot)=       0.01366338 Eh      8.57 kcal/mol|
|  sn= 3 | S(rot)=       0.01328055 Eh      8.33 kcal/mol|
|  sn= 4 | S(rot)=       0.01300892 Eh      8.16 kcal/mol|
|  sn= 5 | S(rot)=       0.01279823 Eh      8.03 kcal/mol|
|  sn= 6 | S(rot)=       0.01262609 Eh      7.92 kcal/mol|
|  sn= 7 | S(rot)=       0.01248054 Eh      7.83 kcal/mol|
|  sn= 8 | S(rot)=       0.01235446 Eh      7.75 kcal/mol|
|  sn= 9 | S(rot)=       0.01224326 Eh      7.68 kcal/mol|
|  sn=10 | S(rot)=       0.01214378 Eh      7.62 kcal/mol|
|  sn=11 | S(rot)=       0.01205379 Eh      7.56 kcal/mol|
|  sn=12 | S(rot)=       0.01197163 Eh      7.51 kcal/mol|
 --------------------------------------------------------

-------------------
GIBBS FREE ENERGY
-------------------

The Gibbs free energy is G = H - T*S

                             ****ORCA TERMINATED NORMALLY****
TOTAL RUN TIME: 0 days 0 hours 5 minutes 1 seconds 322 msec
