                         Program Version 5.0.4 -  RELEASE  -
|  1> %pal nprocs 24 end
|  2> %maxcore 3500
|  3> ! PBE0 D3BJ def2-TZVP TightSCF OPT FREQ TightOpt
|  4> ! CPCM(dmso)
|  5> %scf
|  6> MaxIter 800
|  7> end
|  8> %geom
|  9> MaxIter 800
| 10> MaxStep 0.2
| 11> end
| 12> *xyz -1 1
| 13>
| 14> C       0.03744000     -0.54903100     -1.57792200
| 15> C      -0.02947500      0.67453200     -0.90558200
| 16> C       0.06698100     -1.72406300     -0.82155200
| 17> H      -0.06018300      1.59783500     -1.47591300
| 18> H       0.11303300     -2.68414800     -1.32590700
| 19> C      -0.05107100      0.72710100      0.46929300
| 20> C       0.04642700     -1.68257900      0.55398700
| 21> H      -0.09628400      1.68772600      0.97407300
| 22> H       0.07936300     -2.60680200      1.12361400
| 23> C      -0.01205800     -0.45121600      1.28431400
| 24> O      -0.02670400     -0.40687300      2.55274100
| 25> C       0.00045500     -0.60024500     -3.05224700
| 26> F       0.59666300      0.46087500     -3.63524400
| 27> F       0.59751500     -1.69786300     -3.55722300
| 28> F      -1.26210400     -0.61750000     -3.56685200
| 29> *
| 30>
| 31>                          ****END OF INPUT****
 Total Charge           Charge          ....   -1
 Multiplicity           Mult            ....    1
 Number of Electrons    NEL             ....   82
Dispersion correction           -0.013380882
FINAL SINGLE POINT ENERGY      -643.655285837467
Dispersion correction            ... done
Dispersion correction           -0.013379934
FINAL SINGLE POINT ENERGY      -643.655285114841
Dispersion correction            ... done
                    ***********************HURRAY********************

CARTESIAN COORDINATES (ANGSTROEM)
---------------------------------
  C      0.036877   -0.548887   -1.577986
  C     -0.029882    0.674787   -0.905323
  C      0.066478   -1.724014   -0.821654
  H     -0.060448    1.598023   -1.475656
  H      0.112463   -2.683995   -1.326067
  C     -0.050918    0.727438    0.469862
  C      0.046419   -1.682674    0.554091
  H     -0.095441    1.688039    0.974520
  H      0.079758   -2.606684    1.123813
  C     -0.011959   -0.451254    1.284526
  O     -0.026779   -0.407381    2.553127
  C      0.000510   -0.600237   -3.052673
  F      0.596538    0.460694   -3.636109
  F      0.598307   -1.697778   -3.556941
  F     -1.261927   -0.618328   -3.567949

 Multiplicity           Mult            ....    1
 Number of Electrons    NEL             ....   82
 Basis Dimension        Dim             ....  365

ORBITAL ENERGIES
----------------

  NO   OCC          E(Eh)            E(eV)
   0   2.0000     -24.793270      -674.6592
   1   2.0000     -24.792561      -674.6399
   2   2.0000     -24.785222      -674.4402
   3   2.0000     -19.121192      -520.3141
   4   2.0000     -10.456415      -284.5335
   5   2.0000     -10.253161      -279.0027
   6   2.0000     -10.219170      -278.0778
   7   2.0000     -10.219058      -278.0747
   8   2.0000     -10.213590      -277.9259
   9   2.0000     -10.194684      -277.4115
  10   2.0000     -10.194469      -277.4056
  11   2.0000      -1.336272       -36.3618
  12   2.0000      -1.249297       -33.9951
  13   2.0000      -1.240568       -33.7576
  14   2.0000      -0.989610       -26.9287
  15   2.0000      -0.865262       -23.5450
  16   2.0000      -0.770341       -20.9620
  17   2.0000      -0.756047       -20.5731
  18   2.0000      -0.694378       -18.8950
  19   2.0000      -0.622485       -16.9387
  20   2.0000      -0.611741       -16.6463
  21   2.0000      -0.600064       -16.3286
  22   2.0000      -0.590527       -16.0691
  23   2.0000      -0.561969       -15.2920
  24   2.0000      -0.483797       -13.1648
  25   2.0000      -0.482553       -13.1309
  26   2.0000      -0.463764       -12.6197
  27   2.0000      -0.463416       -12.6102
  28   2.0000      -0.447230       -12.1697
  29   2.0000      -0.438875       -11.9424
  30   2.0000      -0.435228       -11.8432
  31   2.0000      -0.420134       -11.4324
  32   2.0000      -0.414152       -11.2697
  33   2.0000      -0.395815       -10.7707
  34   2.0000      -0.390169       -10.6170
  35   2.0000      -0.361323        -9.8321
  36   2.0000      -0.344637        -9.3780
  37   2.0000      -0.322706        -8.7813
  38   2.0000      -0.258606        -7.0370
  39   2.0000      -0.226659        -6.1677
  40   2.0000      -0.191368        -5.2074
  41   0.0000       0.007453         0.2028
  42   0.0000       0.019233         0.5234
  43   0.0000       0.084628         2.3029
  44   0.0000       0.103758         2.8234
  45   0.0000       0.113340         3.0841

MULLIKEN ATOMIC CHARGES
-----------------------
   0 C :    0.046835
   1 C :   -0.250458
   2 C :   -0.246285
   3 H :    0.144518
   4 H :    0.144948
   5 C :   -0.277175
   6 C :   -0.278259
   7 H :    0.108422
   8 H :    0.108183
   9 C :    0.249042
  10 O :   -0.633311
  11 C :    0.451352
  12 F :   -0.186658
  13 F :   -0.185212
  14 F :   -0.195943
Sum of atomic charges:   -1.0000000

LOEWDIN ATOMIC CHARGES
----------------------
   0 C :   -0.209729
   1 C :   -0.141636
   2 C :   -0.141874
   3 H :    0.153225
   4 H :    0.153034
   5 C :   -0.177717
   6 C :   -0.178394
   7 H :    0.139478
   8 H :    0.139417
   9 C :   -0.425381
  10 O :   -0.165732
  11 C :   -0.641744
  12 F :    0.174467
  13 F :    0.177968
  14 F :    0.144618

  Mayer bond orders larger than 0.100000
B(  0-C ,  1-C ) :   1.2818 B(  0-C ,  2-C ) :   1.2826 B(  0-C , 11-C ) :   1.0618
B(  1-C ,  3-H ) :   0.9597 B(  1-C ,  5-C ) :   1.4542 B(  2-C ,  4-H ) :   0.9592
B(  2-C ,  6-C ) :   1.4512 B(  5-C ,  7-H ) :   0.9857 B(  5-C ,  9-C ) :   1.1950
B(  6-C ,  8-H ) :   0.9859 B(  6-C ,  9-C ) :   1.1964 B(  9-C , 10-O ) :   1.7074
B( 11-C , 12-F ) :   1.1311 B( 11-C , 13-F ) :   1.1323 B( 11-C , 14-F ) :   1.1287

Dispersion correction           -0.013379669
FINAL SINGLE POINT ENERGY      -643.655284904006

DIPOLE MOMENT
-------------
                                X             Y             Z
Electronic contribution:     -0.04049      -0.49941     -14.44286
Nuclear contribution   :      0.10182       0.36641      10.65401
                        -----------------------------------------
Total Dipole Moment    :      0.06133      -0.13300      -3.78885
                        -----------------------------------------
Magnitude (a.u.)       :      3.79168
Magnitude (Debye)      :      9.63768

Dispersion correction in the Hessian             ... done   (      0.3 sec)

VIBRATIONAL FREQUENCIES
-----------------------

Scaling factor for frequencies =  1.000000000  (already applied!)

   0:         0.00 cm**-1
   1:         0.00 cm**-1
   2:         0.00 cm**-1
   3:         0.00 cm**-1
   4:         0.00 cm**-1
   5:         0.00 cm**-1
   6:        18.26 cm**-1
   7:        86.56 cm**-1
   8:       178.05 cm**-1
   9:       206.22 cm**-1
  10:       315.73 cm**-1
  11:       385.20 cm**-1
  12:       403.87 cm**-1
  13:       426.89 cm**-1
  14:       464.72 cm**-1
  15:       509.25 cm**-1
  16:       576.83 cm**-1
  17:       590.71 cm**-1
  18:       607.60 cm**-1
  19:       641.05 cm**-1
  20:       753.45 cm**-1
  21:       759.27 cm**-1
  22:       809.52 cm**-1
  23:       846.37 cm**-1
  24:       857.59 cm**-1
  25:       962.52 cm**-1
  26:       969.24 cm**-1
  27:       996.61 cm**-1
  28:      1041.56 cm**-1
  29:      1085.69 cm**-1
  30:      1099.12 cm**-1
  31:      1135.60 cm**-1
  32:      1169.82 cm**-1
  33:      1278.92 cm**-1
  34:      1327.15 cm**-1
  35:      1339.03 cm**-1
  36:      1419.82 cm**-1
  37:      1479.03 cm**-1
  38:      1566.99 cm**-1
  39:      1571.94 cm**-1
  40:      1647.20 cm**-1
  41:      3168.17 cm**-1
  42:      3168.82 cm**-1
  43:      3187.54 cm**-1
  44:      3190.57 cm**-1

IR SPECTRUM
-----------

 Mode   freq       eps      Int      T**2         TX        TY        TZ
       cm**-1   L/(mol*cm) km/mol    a.u.
----------------------------------------------------------------------------
  6:     18.26   0.000023    0.12  0.000396  ( 0.001052  0.019837 -0.001244)
  7:     86.56   0.001355    6.85  0.004885  (-0.069767 -0.003045 -0.002794)
  8:    178.05   0.001088    5.50  0.001907  (-0.002126  0.043619 -0.000431)
  9:    206.22   0.000656    3.32  0.000993  (-0.031372 -0.001383 -0.002633)
 10:    315.73   0.000029    0.15  0.000029  (-0.002153 -0.001139 -0.004772)
 11:    385.20   0.001634    8.26  0.001324  (-0.001265  0.036196 -0.003457)
 12:    403.87   0.001546    7.81  0.001194  (-0.010590 -0.000427 -0.032893)
 13:    426.89   0.000033    0.17  0.000024  (-0.000746 -0.004768 -0.000861)
 14:    464.72   0.000457    2.31  0.000307  (-0.000821  0.017437  0.001479)
 15:    509.25   0.004233   21.39  0.002594  ( 0.049069  0.001767 -0.013538)
 16:    576.83   0.000005    0.03  0.000003  ( 0.000594 -0.000196  0.001592)
 17:    590.71   0.005771   29.17  0.003049  ( 0.045033  0.000854 -0.031941)
 18:    607.60   0.021854  110.44  0.011224  ( 0.006814  0.003877  0.105653)
 19:    641.05   0.000471    2.38  0.000229  ( 0.000757 -0.014866  0.002739)
 20:    753.45   0.002861   14.46  0.001185  (-0.019430 -0.001826 -0.028360)
 21:    759.27   0.001273    6.43  0.000523  (-0.004541  0.000015 -0.022414)
 22:    809.52   0.000052    0.27  0.000020  ( 0.001010  0.004373 -0.000297)
 23:    846.37   0.000642    3.25  0.000237  ( 0.007748  0.000722  0.013279)
 24:    857.59   0.027224  137.58  0.009906  ( 0.098798  0.004791  0.011062)
 25:    962.52   0.006766   34.19  0.002194  ( 0.041906  0.002630  0.020754)
 26:    969.24   0.000023    0.12  0.000008  ( 0.001366 -0.002349  0.000418)
 27:    996.61   0.000713    3.60  0.000223  ( 0.013651  0.000016  0.006068)
 28:   1041.56   0.095794  484.10  0.028701  (-0.133585 -0.005895 -0.104026)
 29:   1085.69   0.043418  219.41  0.012480  (-0.075285 -0.016676  0.080832)
 30:   1099.12   0.049033  247.79  0.013922  ( 0.010866 -0.117486 -0.000650)
 31:   1135.60   0.022634  114.38  0.006220  (-0.004043  0.078457 -0.006924)
 32:   1169.82   0.035765  180.74  0.009541  (-0.010217  0.005604  0.096979)
 33:   1278.92   0.000187    0.94  0.000046  ( 0.000072 -0.006472  0.001920)
 34:   1327.15   0.205507  1038.55  0.048322  ( 0.012714 -0.011108 -0.219174)
 35:   1339.03   0.010885   55.01  0.002537  (-0.001457  0.049585 -0.008720)
 36:   1419.82   0.095999  485.14  0.021100  (-0.003177  0.004823  0.145142)
 37:   1479.03   0.001347    6.81  0.000284  ( 0.000577 -0.016843 -0.000473)
 38:   1566.99   0.084567  427.37  0.016841  ( 0.000797  0.000029 -0.129772)
 39:   1571.94   0.018207   92.01  0.003615  (-0.002369  0.059611  0.007447)
 40:   1647.20   0.098069  495.60  0.018579  (-0.003921  0.004683  0.136169)
 41:   3168.17   0.004974   25.13  0.000490  ( 0.000301 -0.009594 -0.019944)
 42:   3168.82   0.004872   24.62  0.000480  (-0.000433  0.010387 -0.019281)
 43:   3187.54   0.008400   42.45  0.000822  (-0.001284  0.028649 -0.000062)
 44:   3190.57   0.000753    3.80  0.000074  ( 0.000224  0.008409 -0.001697)

--------------------------
THERMOCHEMISTRY AT 298.15K
--------------------------

Temperature         ... 298.15 K
Pressure            ... 1.00 atm
Total Mass          ... 161.10 AMU

Throughout the following assumptions are being made:
  (1) The electronic state is orbitally nondegenerate
  (2) There are no thermally accessible electronically excited states
  (3) Hindered rotations indicated by low frequency modes are not
      treated as such but are treated as vibrations and this may
      cause some error
  (4) All equations used are the standard statistical mechanics
      equations for an ideal gas
  (5) All vibrations are strictly harmonic

freq.      18.26  E(vib)   ...       0.57
freq.      86.56  E(vib)   ...       0.48
freq.     178.05  E(vib)   ...       0.37
freq.     206.22  E(vib)   ...       0.35
freq.     315.73  E(vib)   ...       0.25
freq.     385.20  E(vib)   ...       0.20
freq.     403.87  E(vib)   ...       0.19
freq.     426.89  E(vib)   ...       0.18
freq.     464.72  E(vib)   ...       0.16
freq.     509.25  E(vib)   ...       0.14
freq.     576.83  E(vib)   ...       0.11
freq.     590.71  E(vib)   ...       0.10
freq.     607.60  E(vib)   ...       0.10
freq.     641.05  E(vib)   ...       0.09
freq.     753.45  E(vib)   ...       0.06
freq.     759.27  E(vib)   ...       0.06
freq.     809.52  E(vib)   ...       0.05
freq.     846.37  E(vib)   ...       0.04
freq.     857.59  E(vib)   ...       0.04
freq.     962.52  E(vib)   ...       0.03
freq.     969.24  E(vib)   ...       0.03
freq.     996.61  E(vib)   ...       0.02
freq.    1041.56  E(vib)   ...       0.02
freq.    1085.69  E(vib)   ...       0.02
freq.    1099.12  E(vib)   ...       0.02
freq.    1135.60  E(vib)   ...       0.01
freq.    1169.82  E(vib)   ...       0.01
freq.    1278.92  E(vib)   ...       0.01
freq.    1327.15  E(vib)   ...       0.01
freq.    1339.03  E(vib)   ...       0.01
freq.    1419.82  E(vib)   ...       0.00
freq.    1479.03  E(vib)   ...       0.00
freq.    1566.99  E(vib)   ...       0.00
freq.    1571.94  E(vib)   ...       0.00
freq.    1647.20  E(vib)   ...       0.00
freq.    3168.17  E(vib)   ...       0.00
freq.    3168.82  E(vib)   ...       0.00
freq.    3187.54  E(vib)   ...       0.00
freq.    3190.57  E(vib)   ...       0.00

------------
INNER ENERGY
------------

The inner energy is: U= E(el) + E(ZPE) + E(vib) + E(rot) + E(trans)
    E(el)   - is the total energy from the electronic structure calculation
              = E(kin-el) + E(nuc-el) + E(el-el) + E(nuc-nuc)
    E(ZPE)  - the the zero temperature vibrational energy from the frequency calculation
    E(vib)  - the the finite temperature correction to E(ZPE) due to population
              of excited vibrational states
    E(rot)  - is the rotational thermal energy
    E(trans)- is the translational thermal energy

Summary of contributions to the inner energy U:
Electronic energy                ...   -643.65528490 Eh
Zero point energy                ...      0.09623545 Eh      60.39 kcal/mol
Thermal vibrational correction   ...      0.00591523 Eh       3.71 kcal/mol
Thermal rotational correction    ...      0.00141627 Eh       0.89 kcal/mol
Thermal translational correction ...      0.00141627 Eh       0.89 kcal/mol
-----------------------------------------------------------------------
Total thermal energy                   -643.55030167 Eh

Summary of corrections to the electronic energy:
(perhaps to be used in another calculation)
Total thermal correction                  0.00874777 Eh       5.49 kcal/mol
Non-thermal (ZPE) correction              0.09623545 Eh      60.39 kcal/mol
-----------------------------------------------------------------------
Total correction                          0.10498323 Eh      65.88 kcal/mol

--------
ENTHALPY
--------

The enthalpy is H = U + kB*T
                kB is Boltzmann's constant
Total free energy                 ...   -643.55030167 Eh
Thermal Enthalpy correction       ...      0.00094421 Eh       0.59 kcal/mol
-----------------------------------------------------------------------
Total Enthalpy                    ...   -643.54935747 Eh

Note: Only C1 symmetry has been detected, increase convergence thresholds
      if your molecule has a higher symmetry. Symmetry factor of 1.0 is
      used for the rotational entropy correction.

Note: Rotational entropy computed according to Herzberg
Infrared and Raman Spectra, Chapter V,1, Van Nostrand Reinhold, 1945
Point Group:  C1, Symmetry Number:   1
Rotational constants in cm-1:     0.095569     0.021260     0.019121

Vibrational entropy computed according to the QRRHO of S. Grimme
Chem.Eur.J. 2012 18 9955

-------
ENTROPY
-------

The entropy contributions are T*S = T*(S(el)+S(vib)+S(rot)+S(trans))
     S(el)   - electronic entropy
     S(vib)  - vibrational entropy
     S(rot)  - rotational entropy
     S(trans)- translational entropy
The entropies will be listed as multiplied by the temperature to get
units of energy

Electronic entropy                ...      0.00000000 Eh      0.00 kcal/mol
Vibrational entropy               ...      0.01014950 Eh      6.37 kcal/mol
Rotational entropy                ...      0.01430528 Eh      8.98 kcal/mol
Translational entropy             ...      0.01954662 Eh     12.27 kcal/mol
-----------------------------------------------------------------------
Final entropy term                ...      0.04400140 Eh     27.61 kcal/mol

In case the symmetry of your molecule has not been determined correctly
or in case you have a reason to use a different symmetry number we print
out the resulting rotational entropy values for sn=1,12 :
 --------------------------------------------------------
|  sn= 1 | S(rot)=       0.01430528 Eh      8.98 kcal/mol|
|  sn= 2 | S(rot)=       0.01365083 Eh      8.57 kcal/mol|
|  sn= 3 | S(rot)=       0.01326799 Eh      8.33 kcal/mol|
|  sn= 4 | S(rot)=       0.01299637 Eh      8.16 kcal/mol|
|  sn= 5 | S(rot)=       0.01278568 Eh      8.02 kcal/mol|
|  sn= 6 | S(rot)=       0.01261354 Eh      7.92 kcal/mol|
|  sn= 7 | S(rot)=       0.01246799 Eh      7.82 kcal/mol|
|  sn= 8 | S(rot)=       0.01234191 Eh      7.74 kcal/mol|
|  sn= 9 | S(rot)=       0.01223071 Eh      7.67 kcal/mol|
|  sn=10 | S(rot)=       0.01213123 Eh      7.61 kcal/mol|
|  sn=11 | S(rot)=       0.01204124 Eh      7.56 kcal/mol|
|  sn=12 | S(rot)=       0.01195908 Eh      7.50 kcal/mol|
 --------------------------------------------------------

-------------------
GIBBS FREE ENERGY
-------------------

The Gibbs free energy is G = H - T*S

Total enthalpy                    ...   -643.54935747 Eh
Total entropy correction          ...     -0.04400140 Eh    -27.61 kcal/mol
-----------------------------------------------------------------------

                             ****ORCA TERMINATED NORMALLY****
TOTAL RUN TIME: 0 days 0 hours 4 minutes 59 seconds 522 msec
