                         Program Version 5.0.4 -  RELEASE  -
|  1> %pal nprocs 24 end
|  2> %maxcore 3500
|  3> ! PBE0 D3BJ def2-TZVP TightSCF OPT FREQ TightOpt
|  4> ! CPCM(dmso)
|  5> %scf
|  6> MaxIter 800
|  7> end
|  8> %geom
|  9> MaxIter 800
| 10> MaxStep 0.2
| 11> end
| 12> *xyz 0 1
| 13>
| 14> C      -0.05626300     -0.50286300     -1.62095500
| 15> C      -0.24882200      0.66875000     -0.88056800
| 16> C       0.19938100     -1.67233200     -0.89054600
| 17> H      -0.43917200      1.59863300     -1.40749700
| 18> H       0.38945000     -2.60535300     -1.40952300
| 19> C      -0.21176300      0.67957800      0.50499000
| 20> C       0.23225300     -1.67600900      0.49210300
| 21> H      -0.36692400      1.60696800      1.04841400
| 22> H       0.43240300     -2.59330600      1.03512700
| 23> C       0.02351900     -0.49803100      1.20238300
| 24> O       0.06986000     -0.55346600      2.56081300
| 25> H      -0.08919600      0.32520800      2.92418600
| 26> C      -0.12925100     -0.44990700     -3.07501300
| 27> H      -0.14651800      0.54496400     -3.50807300
| 28> C      -0.19353000     -1.52847900     -3.88396700
| 29> H      -0.24847000     -2.52574300     -3.45599200
| 30> N      -0.17306700     -1.53242400     -5.24747600
| 31> C      -0.77756000     -2.65132400     -5.93240000
| 32> H      -0.32857000     -2.76655300     -6.92103200
| 33> H      -0.60463100     -3.56535800     -5.36253600
| 34> H      -1.86208500     -2.52486700     -6.06002100
| 35> C      -0.19331200     -0.27615400     -5.94864400
| 36> H      -0.03575300     -0.45760800     -7.01202900
| 37> H      -1.14746900      0.25709300     -5.82322100
| 38> H       0.60691200      0.37209100     -5.58423700
| 39> *
| 40>
| 41>                          ****END OF INPUT****
 Total Charge           Charge          ....    0
 Multiplicity           Mult            ....    1
 Number of Electrons    NEL             ....   88
Dispersion correction           -0.022446600
FINAL SINGLE POINT ENERGY      -518.459827645600
Dispersion correction            ... done
Dispersion correction           -0.022445607
FINAL SINGLE POINT ENERGY      -518.459827971969
Dispersion correction            ... done
                    ***********************HURRAY********************

CARTESIAN COORDINATES (ANGSTROEM)
---------------------------------
  C     -0.055748   -0.502813   -1.620899
  C     -0.248648    0.668920   -0.880374
  C      0.199836   -1.672430   -0.890246
  H     -0.439035    1.598693   -1.407357
  H      0.390030   -2.605249   -1.409404
  C     -0.211992    0.679630    0.505360
  C      0.232393   -1.676090    0.492562
  H     -0.367459    1.606862    1.048842
  H      0.432455   -2.593275    1.035666
  C      0.023298   -0.498063    1.202964
  O      0.069189   -0.553434    2.561494
  H     -0.090102    0.325318    2.924418
  C     -0.128551   -0.449906   -3.075261
  H     -0.145662    0.544893   -3.508262
  C     -0.192745   -1.528486   -3.884317
  H     -0.247868   -2.525571   -3.456193
  N     -0.172433   -1.532646   -5.247861
  C     -0.777932   -2.651041   -5.932608
  H     -0.329684   -2.765776   -6.921520
  H     -0.604752   -3.565234   -5.363233
  H     -1.862399   -2.523812   -6.059173
  C     -0.193395   -0.276530   -5.949238
  H     -0.036467   -0.458395   -7.012528
  H     -1.147717    0.256064   -5.823083
  H      0.606811    0.371879   -5.585462

 Multiplicity           Mult            ....    1
 Number of Electrons    NEL             ....   88
 Basis Dimension        Dim             ....  450

ORBITAL ENERGIES
----------------

  NO   OCC          E(Eh)            E(eV)
   0   2.0000     -19.233223      -523.3626
   1   2.0000     -14.404426      -391.9644
   2   2.0000     -10.280129      -279.7365
   3   2.0000     -10.248492      -278.8757
   4   2.0000     -10.240927      -278.6698
   5   2.0000     -10.238987      -278.6170
   6   2.0000     -10.228845      -278.3410
   7   2.0000     -10.221284      -278.1353
   8   2.0000     -10.220959      -278.1264
   9   2.0000     -10.220303      -278.1086
  10   2.0000     -10.219337      -278.0823
  11   2.0000     -10.202867      -277.6341
  12   2.0000      -1.089688       -29.6519
  13   2.0000      -0.978538       -26.6274
  14   2.0000      -0.881814       -23.9954
  15   2.0000      -0.804102       -21.8807
  16   2.0000      -0.770659       -20.9707
  17   2.0000      -0.747372       -20.3370
  18   2.0000      -0.740613       -20.1531
  19   2.0000      -0.677660       -18.4401
  20   2.0000      -0.641815       -17.4647
  21   2.0000      -0.611063       -16.6279
  22   2.0000      -0.571188       -15.5428
  23   2.0000      -0.558445       -15.1961
  24   2.0000      -0.518407       -14.1066
  25   2.0000      -0.513838       -13.9822
  26   2.0000      -0.478084       -13.0093
  27   2.0000      -0.474547       -12.9131
  28   2.0000      -0.462844       -12.5946
  29   2.0000      -0.444495       -12.0953
  30   2.0000      -0.430725       -11.7206
  31   2.0000      -0.429544       -11.6885
  32   2.0000      -0.411596       -11.2001
  33   2.0000      -0.405859       -11.0440
  34   2.0000      -0.402059       -10.9406
  35   2.0000      -0.388133       -10.5616
  36   2.0000      -0.376071       -10.2334
  37   2.0000      -0.370521       -10.0824
  38   2.0000      -0.367928       -10.0118
  39   2.0000      -0.341106        -9.2820
  40   2.0000      -0.320022        -8.7082
  41   2.0000      -0.268649        -7.3103
  42   2.0000      -0.258516        -7.0346
  43   2.0000      -0.186537        -5.0759
  44   0.0000      -0.013904        -0.3783
  45   0.0000      -0.003903        -0.1062
  46   0.0000       0.054860         1.4928
  47   0.0000       0.063243         1.7209
  48   0.0000       0.067350         1.8327

MULLIKEN ATOMIC CHARGES
-----------------------
   0 C :    0.227195
   1 C :   -0.257783
   2 C :   -0.259229
   3 H :    0.141642
   4 H :    0.135365
   5 C :   -0.246499
   6 C :   -0.244061
   7 H :    0.152343
   8 H :    0.138148
   9 C :    0.255432
  10 O :   -0.441346
  11 H :    0.365100
  12 C :   -0.356664
  13 H :    0.143846
  14 C :   -0.058039
  15 H :    0.150248
  16 N :   -0.062083
  17 C :   -0.310993
  18 H :    0.148094
  19 H :    0.151714
  20 H :    0.127232
  21 C :   -0.339795
  22 H :    0.156522
  23 H :    0.133171
  24 H :    0.150441
Sum of atomic charges:   -0.0000000

LOEWDIN ATOMIC CHARGES
----------------------
   0 C :   -0.174163
   1 C :   -0.123803
   2 C :   -0.118343
   3 H :    0.154438
   4 H :    0.153417
   5 C :   -0.152596
   6 C :   -0.141543
   7 H :    0.155678
   8 H :    0.154385
   9 C :   -0.302964
  10 O :    0.066207
  11 H :    0.205065
  12 C :   -0.206143
  13 H :    0.152861
  14 C :   -0.222061
  15 H :    0.153473
  16 N :    0.117483
  17 C :   -0.302595
  18 H :    0.123107
  19 H :    0.127633
  20 H :    0.114397
  21 C :   -0.303425
  22 H :    0.127712
  23 H :    0.115907
  24 H :    0.125874

  Mayer bond orders larger than 0.100000
B(  0-C ,  1-C ) :   1.3249 B(  0-C ,  2-C ) :   1.3212 B(  0-C , 12-C ) :   1.0411
B(  1-C ,  3-H ) :   0.9694 B(  1-C ,  5-C ) :   1.4000 B(  2-C ,  4-H ) :   0.9720
B(  2-C ,  6-C ) :   1.4792 B(  5-C ,  7-H ) :   0.9643 B(  5-C ,  9-C ) :   1.3559
B(  6-C ,  8-H ) :   0.9819 B(  6-C ,  9-C ) :   1.3622 B(  9-C , 10-O ) :   1.1196
B( 10-O , 11-H ) :   0.8541 B( 12-C , 13-H ) :   0.9604 B( 12-C , 14-C ) :   1.6939
B( 14-C , 15-H ) :   0.9194 B( 14-C , 16-N ) :   1.2370 B( 16-N , 17-C ) :   0.9599
B( 16-N , 21-C ) :   0.9718 B( 17-C , 18-H ) :   0.9646 B( 17-C , 19-H ) :   0.9615
B( 17-C , 20-H ) :   0.9591 B( 21-C , 22-H ) :   0.9599 B( 21-C , 23-H ) :   0.9580
B( 21-C , 24-H ) :   0.9570

Dispersion correction           -0.022445586
FINAL SINGLE POINT ENERGY      -518.459828003623

DIPOLE MOMENT
-------------
                                X             Y             Z
Electronic contribution:      1.61566       1.58794      14.16533
Nuclear contribution   :     -1.99971      -1.27951     -15.38339
                        -----------------------------------------
Total Dipole Moment    :     -0.38406       0.30844      -1.21806
                        -----------------------------------------
Magnitude (a.u.)       :      1.31389
Magnitude (Debye)      :      3.33964

Dispersion correction in the Hessian             ... done   (      0.4 sec)

VIBRATIONAL FREQUENCIES
-----------------------

Scaling factor for frequencies =  1.000000000  (already applied!)

   0:         0.00 cm**-1
   1:         0.00 cm**-1
   2:         0.00 cm**-1
   3:         0.00 cm**-1
   4:         0.00 cm**-1
   5:         0.00 cm**-1
   6:        31.99 cm**-1
   7:        63.03 cm**-1
   8:        90.51 cm**-1
   9:       134.62 cm**-1
  10:       192.63 cm**-1
  11:       199.28 cm**-1
  12:       219.44 cm**-1
  13:       263.89 cm**-1
  14:       303.38 cm**-1
  15:       328.30 cm**-1
  16:       359.40 cm**-1
  17:       392.78 cm**-1
  18:       419.80 cm**-1
  19:       423.10 cm**-1
  20:       455.52 cm**-1
  21:       514.04 cm**-1
  22:       536.99 cm**-1
  23:       579.57 cm**-1
  24:       655.62 cm**-1
  25:       739.99 cm**-1
  26:       810.86 cm**-1
  27:       814.22 cm**-1
  28:       828.50 cm**-1
  29:       857.68 cm**-1
  30:       869.42 cm**-1
  31:       910.39 cm**-1
  32:       952.15 cm**-1
  33:       967.43 cm**-1
  34:       969.75 cm**-1
  35:      1029.36 cm**-1
  36:      1082.85 cm**-1
  37:      1111.76 cm**-1
  38:      1118.61 cm**-1
  39:      1126.69 cm**-1
  40:      1158.66 cm**-1
  41:      1189.44 cm**-1
  42:      1193.29 cm**-1
  43:      1233.48 cm**-1
  44:      1254.95 cm**-1
  45:      1297.51 cm**-1
  46:      1326.07 cm**-1
  47:      1339.41 cm**-1
  48:      1376.22 cm**-1
  49:      1390.41 cm**-1
  50:      1406.50 cm**-1
  51:      1434.99 cm**-1
  52:      1455.18 cm**-1
  53:      1460.36 cm**-1
  54:      1465.15 cm**-1
  55:      1475.81 cm**-1
  56:      1487.49 cm**-1
  57:      1508.10 cm**-1
  58:      1553.54 cm**-1
  59:      1641.92 cm**-1
  60:      1673.93 cm**-1
  61:      1694.83 cm**-1
  62:      2987.46 cm**-1
  63:      2994.49 cm**-1
  64:      3086.98 cm**-1
  65:      3090.24 cm**-1
  66:      3139.81 cm**-1
  67:      3143.22 cm**-1
  68:      3172.26 cm**-1
  69:      3174.38 cm**-1
  70:      3185.11 cm**-1
  71:      3188.10 cm**-1
  72:      3190.20 cm**-1
  73:      3203.62 cm**-1
  74:      3825.70 cm**-1

IR SPECTRUM
-----------

 Mode   freq       eps      Int      T**2         TX        TY        TZ
       cm**-1   L/(mol*cm) km/mol    a.u.
----------------------------------------------------------------------------
  6:     31.99   0.000357    1.80  0.003478  ( 0.051499 -0.012644 -0.025814)
  7:     63.03   0.000550    2.78  0.002725  ( 0.046867  0.001459 -0.022946)
  8:     90.51   0.000857    4.33  0.002954  ( 0.020970 -0.037041 -0.033794)
  9:    134.62   0.005017   25.35  0.011630  (-0.014182  0.036149  0.100610)
 10:    192.63   0.001250    6.32  0.002025  ( 0.007939  0.020845  0.039084)
 11:    199.28   0.000409    2.07  0.000641  ( 0.013813 -0.000311  0.021206)
 12:    219.44   0.001123    5.68  0.001597  (-0.016471  0.004782  0.036096)
 13:    263.89   0.000006    0.03  0.000007  ( 0.000632  0.001802 -0.001839)
 14:    303.38   0.001817    9.18  0.001869  ( 0.007694 -0.001282 -0.042522)
 15:    328.30   0.003620   18.30  0.003441  ( 0.002440 -0.032127 -0.049024)
 16:    359.40   0.035139  177.58  0.030511  (-0.171562 -0.032473  0.004765)
 17:    392.78   0.000463    2.34  0.000367  (-0.004225 -0.016730 -0.008351)
 18:    419.80   0.006222   31.44  0.004625  (-0.007419 -0.019328 -0.064780)
 19:    423.10   0.000553    2.79  0.000408  ( 0.006459 -0.004645 -0.018563)
 20:    455.52   0.000062    0.31  0.000042  ( 0.003279 -0.003260 -0.004558)
 21:    514.04   0.001438    7.27  0.000873  (-0.027566 -0.009834 -0.004038)
 22:    536.99   0.006633   33.52  0.003855  ( 0.059066  0.003909 -0.018726)
 23:    579.57   0.012193   61.62  0.006565  (-0.008809  0.007241  0.080220)
 24:    655.62   0.000250    1.26  0.000119  ( 0.001296  0.002570 -0.010511)
 25:    739.99   0.000891    4.50  0.000376  ( 0.006200 -0.003200 -0.018081)
 26:    810.86   0.005548   28.04  0.002135  ( 0.012207 -0.000043  0.044566)
 27:    814.22   0.001307    6.61  0.000501  ( 0.011223 -0.017675  0.007915)
 28:    828.50   0.000666    3.37  0.000251  ( 0.012941 -0.007713 -0.004902)
 29:    857.68   0.027698  139.97  0.010078  (-0.099141 -0.015771 -0.000188)
 30:    869.42   0.005035   25.44  0.001807  (-0.008928  0.013493  0.039313)
 31:    910.39   0.002151   10.87  0.000737  (-0.018240  0.006254 -0.019123)
 32:    952.15   0.000267    1.35  0.000088  ( 0.008766  0.002123  0.002513)
 33:    967.43   0.002345   11.85  0.000756  (-0.021961 -0.003107 -0.016264)
 34:    969.75   0.020708  104.65  0.006664  ( 0.061268  0.011021  0.052806)
 35:   1029.36   0.000015    0.07  0.000004  ( 0.001734 -0.001105  0.000420)
 36:   1082.85   0.002807   14.18  0.000809  (-0.006629 -0.024071  0.013618)
 37:   1111.76   0.069047  348.94  0.019381  (-0.012077 -0.054592 -0.127495)
 38:   1118.61   0.002168   10.96  0.000605  (-0.008968 -0.007150  0.021756)
 39:   1126.69   0.003082   15.57  0.000854  ( 0.006404 -0.016770  0.023052)
 40:   1158.66   0.020178  101.97  0.005435  ( 0.008324 -0.018687 -0.070825)
 41:   1189.44   0.015757   79.63  0.004134  (-0.003025  0.004483 -0.064068)
 42:   1193.29   0.048846  246.85  0.012774  ( 0.006312 -0.019943  0.111069)
 43:   1233.48   0.003212   16.23  0.000813  ( 0.000595 -0.028394  0.002459)
 44:   1254.95   0.008760   44.27  0.002178  ( 0.010298  0.032577  0.031798)
 45:   1297.51   0.046138  233.16  0.011097  (-0.001411 -0.013811 -0.104421)
 46:   1326.07   0.004581   23.15  0.001078  (-0.005026 -0.009800 -0.030931)
 47:   1339.41   0.002230   11.27  0.000519  (-0.003940  0.021978  0.004573)
 48:   1376.22   0.009959   50.33  0.002258  (-0.002731  0.009123  0.046556)
 49:   1390.41   0.016259   82.17  0.003649  ( 0.001286 -0.010348  0.059502)
 50:   1406.50   0.056882  287.46  0.012620  ( 0.010556  0.034921  0.106252)
 51:   1434.99   0.001981   10.01  0.000431  ( 0.002240  0.004731  0.020084)
 52:   1455.18   0.013958   70.54  0.002993  (-0.010533 -0.010625 -0.052627)
 53:   1460.36   0.002576   13.02  0.000550  ( 0.007731 -0.018380 -0.012362)
 54:   1465.15   0.008471   42.81  0.001804  ( 0.029892  0.000923 -0.030165)
 55:   1475.81   0.000396    2.00  0.000084  ( 0.004285 -0.004297  0.006851)
 56:   1487.49   0.008519   43.05  0.001787  ( 0.002389 -0.023194 -0.035264)
 57:   1508.10   0.036075  182.31  0.007465  ( 0.008278 -0.004116  0.085903)
 58:   1553.54   0.044988  227.35  0.009037  ( 0.002912 -0.000473  0.095017)
 59:   1641.92   0.003196   16.15  0.000607  (-0.000620  0.021912  0.011262)
 60:   1673.93   0.002465   12.45  0.000459  ( 0.001398  0.002262 -0.021269)
 61:   1694.83   0.162834  822.90  0.029982  (-0.010192 -0.048397 -0.165940)
 62:   2987.46   0.016546   83.62  0.001728  (-0.013251  0.033870 -0.020139)
 63:   2994.49   0.045765  231.28  0.004769  ( 0.045894  0.017202  0.048653)
 64:   3086.98   0.011203   56.62  0.001133  ( 0.029214  0.002076 -0.016577)
 65:   3090.24   0.005757   29.09  0.000581  ( 0.011973 -0.017551 -0.011400)
 66:   3139.81   0.003061   15.47  0.000304  ( 0.001126  0.011619 -0.012960)
 67:   3143.22   0.005485   27.72  0.000545  (-0.002218 -0.004615 -0.022767)
 68:   3172.26   0.000999    5.05  0.000098  (-0.000210 -0.008066  0.005759)
 69:   3174.38   0.003724   18.82  0.000366  (-0.001462  0.001817 -0.018990)
 70:   3185.11   0.008126   41.07  0.000796  ( 0.000106  0.007338 -0.027245)
 71:   3188.10   0.002030   10.26  0.000199  ( 0.000833 -0.008342 -0.011333)
 72:   3190.20   0.003653   18.46  0.000357  ( 0.002706 -0.018688  0.000910)
 73:   3203.62   0.002171   10.97  0.000211  ( 0.003253 -0.012814  0.006053)
 74:   3825.70   0.044929  227.05  0.003665  (-0.005059  0.036367  0.048132)

--------------------------
THERMOCHEMISTRY AT 298.15K
--------------------------

Temperature         ... 298.15 K
Pressure            ... 1.00 atm
Total Mass          ... 163.22 AMU

Throughout the following assumptions are being made:
  (1) The electronic state is orbitally nondegenerate
  (2) There are no thermally accessible electronically excited states
  (3) Hindered rotations indicated by low frequency modes are not
      treated as such but are treated as vibrations and this may
      cause some error
  (4) All equations used are the standard statistical mechanics
      equations for an ideal gas
  (5) All vibrations are strictly harmonic

freq.      31.99  E(vib)   ...       0.55
freq.      63.03  E(vib)   ...       0.51
freq.      90.51  E(vib)   ...       0.47
freq.     134.62  E(vib)   ...       0.42
freq.     192.63  E(vib)   ...       0.36
freq.     199.28  E(vib)   ...       0.35
freq.     219.44  E(vib)   ...       0.33
freq.     263.89  E(vib)   ...       0.29
freq.     303.38  E(vib)   ...       0.26
freq.     328.30  E(vib)   ...       0.24
freq.     359.40  E(vib)   ...       0.22
freq.     392.78  E(vib)   ...       0.20
freq.     419.80  E(vib)   ...       0.18
freq.     423.10  E(vib)   ...       0.18
freq.     455.52  E(vib)   ...       0.16
freq.     514.04  E(vib)   ...       0.13
freq.     536.99  E(vib)   ...       0.12
freq.     579.57  E(vib)   ...       0.11
freq.     655.62  E(vib)   ...       0.08
freq.     739.99  E(vib)   ...       0.06
freq.     810.86  E(vib)   ...       0.05
freq.     814.22  E(vib)   ...       0.05
freq.     828.50  E(vib)   ...       0.04
freq.     857.68  E(vib)   ...       0.04
freq.     869.42  E(vib)   ...       0.04
freq.     910.39  E(vib)   ...       0.03
freq.     952.15  E(vib)   ...       0.03
freq.     967.43  E(vib)   ...       0.03
freq.     969.75  E(vib)   ...       0.03
freq.    1029.36  E(vib)   ...       0.02
freq.    1082.85  E(vib)   ...       0.02
freq.    1111.76  E(vib)   ...       0.01
freq.    1118.61  E(vib)   ...       0.01
freq.    1126.69  E(vib)   ...       0.01
freq.    1158.66  E(vib)   ...       0.01
freq.    1189.44  E(vib)   ...       0.01
freq.    1193.29  E(vib)   ...       0.01
freq.    1233.48  E(vib)   ...       0.01
freq.    1254.95  E(vib)   ...       0.01
freq.    1297.51  E(vib)   ...       0.01
freq.    1326.07  E(vib)   ...       0.01
freq.    1339.41  E(vib)   ...       0.01
freq.    1376.22  E(vib)   ...       0.01
freq.    1390.41  E(vib)   ...       0.00
freq.    1406.50  E(vib)   ...       0.00
freq.    1434.99  E(vib)   ...       0.00
freq.    1455.18  E(vib)   ...       0.00
freq.    1460.36  E(vib)   ...       0.00
freq.    1465.15  E(vib)   ...       0.00
freq.    1475.81  E(vib)   ...       0.00
freq.    1487.49  E(vib)   ...       0.00
freq.    1508.10  E(vib)   ...       0.00
freq.    1553.54  E(vib)   ...       0.00
freq.    1641.92  E(vib)   ...       0.00
freq.    1673.93  E(vib)   ...       0.00
freq.    1694.83  E(vib)   ...       0.00
freq.    2987.46  E(vib)   ...       0.00
freq.    2994.49  E(vib)   ...       0.00
freq.    3086.98  E(vib)   ...       0.00
freq.    3090.24  E(vib)   ...       0.00
freq.    3139.81  E(vib)   ...       0.00
freq.    3143.22  E(vib)   ...       0.00
freq.    3172.26  E(vib)   ...       0.00
freq.    3174.38  E(vib)   ...       0.00
freq.    3185.11  E(vib)   ...       0.00
freq.    3188.10  E(vib)   ...       0.00
freq.    3190.20  E(vib)   ...       0.00
freq.    3203.62  E(vib)   ...       0.00
freq.    3825.70  E(vib)   ...       0.00

------------
INNER ENERGY
------------

The inner energy is: U= E(el) + E(ZPE) + E(vib) + E(rot) + E(trans)
    E(el)   - is the total energy from the electronic structure calculation
              = E(kin-el) + E(nuc-el) + E(el-el) + E(nuc-nuc)
    E(ZPE)  - the the zero temperature vibrational energy from the frequency calculation
    E(vib)  - the the finite temperature correction to E(ZPE) due to population
              of excited vibrational states
    E(rot)  - is the rotational thermal energy
    E(trans)- is the translational thermal energy

Summary of contributions to the inner energy U:
Electronic energy                ...   -518.45982800 Eh
Zero point energy                ...      0.21130539 Eh     132.60 kcal/mol
Thermal vibrational correction   ...      0.00919655 Eh       5.77 kcal/mol
Thermal rotational correction    ...      0.00141627 Eh       0.89 kcal/mol
Thermal translational correction ...      0.00141627 Eh       0.89 kcal/mol
-----------------------------------------------------------------------
Total thermal energy                   -518.23649352 Eh

Summary of corrections to the electronic energy:
(perhaps to be used in another calculation)
Total thermal correction                  0.01202910 Eh       7.55 kcal/mol
Non-thermal (ZPE) correction              0.21130539 Eh     132.60 kcal/mol
-----------------------------------------------------------------------
Total correction                          0.22333448 Eh     140.14 kcal/mol

--------
ENTHALPY
--------

The enthalpy is H = U + kB*T
                kB is Boltzmann's constant
Total free energy                 ...   -518.23649352 Eh
Thermal Enthalpy correction       ...      0.00094421 Eh       0.59 kcal/mol
-----------------------------------------------------------------------
Total Enthalpy                    ...   -518.23554931 Eh

Note: Only C1 symmetry has been detected, increase convergence thresholds
      if your molecule has a higher symmetry. Symmetry factor of 1.0 is
      used for the rotational entropy correction.

Note: Rotational entropy computed according to Herzberg
Infrared and Raman Spectra, Chapter V,1, Van Nostrand Reinhold, 1945
Point Group:  C1, Symmetry Number:   1
Rotational constants in cm-1:     0.108562     0.011936     0.010893

Vibrational entropy computed according to the QRRHO of S. Grimme
Chem.Eur.J. 2012 18 9955

-------
ENTROPY
-------

The entropy contributions are T*S = T*(S(el)+S(vib)+S(rot)+S(trans))
     S(el)   - electronic entropy
     S(vib)  - vibrational entropy
     S(rot)  - rotational entropy
     S(trans)- translational entropy
The entropies will be listed as multiplied by the temperature to get
units of energy

Electronic entropy                ...      0.00000000 Eh      0.00 kcal/mol
Vibrational entropy               ...      0.01580164 Eh      9.92 kcal/mol
Rotational entropy                ...      0.01478323 Eh      9.28 kcal/mol
Translational entropy             ...      0.01956511 Eh     12.28 kcal/mol
-----------------------------------------------------------------------

                             ****ORCA TERMINATED NORMALLY****
TOTAL RUN TIME: 0 days 0 hours 8 minutes 41 seconds 318 msec
