                         Program Version 5.0.4 -  RELEASE  -
|  1> %pal nprocs 24 end
|  2> %maxcore 3500
|  3> ! PBE0 D3BJ def2-TZVP TightSCF OPT FREQ TightOpt
|  4> ! CPCM(dmso)
|  5> %scf
|  6> MaxIter 800
|  7> end
|  8> %geom
|  9> MaxIter 800
| 10> MaxStep 0.2
| 11> end
| 12> *xyz 0 1
| 13>
| 14> C       0.00006400     -0.60216600     -1.62901300
| 15> C       0.00000500      0.63432000     -0.97634600
| 16> C       0.00006400     -1.76050900     -0.83954700
| 17> H       0.00000700      1.54339400     -1.56855200
| 18> H       0.00011300     -2.73754000     -1.30899200
| 19> C      -0.00006900      0.72346100      0.40256400
| 20> C      -0.00000700     -1.68628400      0.53592100
| 21> H      -0.00012100      1.69054000      0.89486000
| 22> H      -0.00001200     -2.58520000      1.14133000
| 23> C      -0.00007200     -0.44008600      1.16584700
| 24> O      -0.00014200     -0.42151900      2.51344300
| 25> H      -0.00018500      0.49029700      2.82960300
| 26> C       0.00013600     -0.62179400     -3.07622600
| 27> H       0.00012600      0.35466300     -3.55592800
| 28> C       0.00021900     -1.69256300     -3.88284900
| 29> H       0.00023800     -2.71063400     -3.51297300
| 30> C       0.00029700     -1.51875400     -5.33463100
| 31> O       0.00005900     -0.46098300     -5.93065700
| 32> O       0.00008400     -2.70259200     -5.96051400
| 33> C      -0.00015600     -2.65738900     -7.38628500
| 34> H      -0.89012400     -2.14422400     -7.75277900
| 35> H       0.88978200     -2.14438600     -7.75308100
| 36> H      -0.00030600     -3.69366800     -7.71569600
| 37> *
| 38>
| 39>                          ****END OF INPUT****
 Total Charge           Charge          ....    0
 Multiplicity           Mult            ....    1
 Number of Electrons    NEL             ....   94
Dispersion correction           -0.020535787
FINAL SINGLE POINT ENERGY      -612.328267868787
Dispersion correction            ... done
Dispersion correction           -0.020535488
FINAL SINGLE POINT ENERGY      -612.328268702261
Dispersion correction            ... done
Dispersion correction           -0.020535255
FINAL SINGLE POINT ENERGY      -612.328268906902
Dispersion correction            ... done
Dispersion correction           -0.020535629
FINAL SINGLE POINT ENERGY      -612.328269195006
Dispersion correction            ... done
                    ***********************HURRAY********************

CARTESIAN COORDINATES (ANGSTROEM)
---------------------------------
  C     -0.000065   -0.601385   -1.629072
  C     -0.000022    0.634832   -0.975900
  C     -0.000056   -1.760420   -0.840121
  H     -0.000028    1.543908   -1.568013
  H     -0.000086   -2.736975   -1.310309
  C      0.000030    0.723482    0.403252
  C     -0.000004   -1.686381    0.535455
  H      0.000066    1.690625    0.895285
  H      0.000007   -2.584723    1.141651
  C      0.000043   -0.440463    1.166083
  O      0.000102   -0.422421    2.513689
  H      0.000133    0.489455    2.829526
  C     -0.000089   -0.621348   -3.076436
  H     -0.000077    0.354489   -3.557368
  C     -0.000105   -1.692270   -3.882925
  H     -0.000110   -2.709893   -3.511977
  C     -0.000082   -1.518852   -5.334908
  O     -0.000037   -0.461246   -5.930872
  O     -0.000026   -2.703130   -5.960329
  C      0.000081   -2.657795   -7.386029
  H     -0.889707   -2.144610   -7.752804
  H      0.889901   -2.144567   -7.752666
  H      0.000132   -3.693929   -7.715712

 Multiplicity           Mult            ....    1
 Number of Electrons    NEL             ....   94
 Basis Dimension        Dim             ....  463

ORBITAL ENERGIES
----------------

  NO   OCC          E(Eh)            E(eV)
   0   2.0000     -19.255195      -523.9605
   1   2.0000     -19.246417      -523.7216
   2   2.0000     -19.190719      -522.2060
   3   2.0000     -10.349545      -281.6254
   4   2.0000     -10.299686      -280.2687
   5   2.0000     -10.266383      -279.3625
   6   2.0000     -10.248617      -278.8790
   7   2.0000     -10.239947      -278.6431
   8   2.0000     -10.238564      -278.6055
   9   2.0000     -10.238194      -278.5954
  10   2.0000     -10.230884      -278.3965
  11   2.0000     -10.230476      -278.3854
  12   2.0000     -10.229805      -278.3671
  13   2.0000      -1.141001       -31.0482
  14   2.0000      -1.106048       -30.0971
  15   2.0000      -1.046924       -28.4883
  16   2.0000      -0.898445       -24.4479
  17   2.0000      -0.835481       -22.7346
  18   2.0000      -0.786401       -21.3991
  19   2.0000      -0.779865       -21.2212
  20   2.0000      -0.740817       -20.1587
  21   2.0000      -0.672657       -18.3039
  22   2.0000      -0.644809       -17.5461
  23   2.0000      -0.613071       -16.6825
  24   2.0000      -0.576838       -15.6966
  25   2.0000      -0.570345       -15.5199
  26   2.0000      -0.536503       -14.5990
  27   2.0000      -0.518991       -14.1225
  28   2.0000      -0.502448       -13.6723
  29   2.0000      -0.490432       -13.3453
  30   2.0000      -0.490152       -13.3377
  31   2.0000      -0.459081       -12.4922
  32   2.0000      -0.444569       -12.0973
  33   2.0000      -0.444059       -12.0835
  34   2.0000      -0.433031       -11.7834
  35   2.0000      -0.429782       -11.6950
  36   2.0000      -0.417046       -11.3484
  37   2.0000      -0.393424       -10.7056
  38   2.0000      -0.385390       -10.4870
  39   2.0000      -0.382783       -10.4160
  40   2.0000      -0.372099       -10.1253
  41   2.0000      -0.354501        -9.6465
  42   2.0000      -0.323233        -8.7956
  43   2.0000      -0.309994        -8.4354
  44   2.0000      -0.300541        -8.1781
  45   2.0000      -0.281358        -7.6561
  46   2.0000      -0.234506        -6.3812
  47   0.0000      -0.065663        -1.7868
  48   0.0000      -0.017010        -0.4629
  49   0.0000       0.024210         0.6588
  50   0.0000       0.060956         1.6587
  51   0.0000       0.067560         1.8384

MULLIKEN ATOMIC CHARGES
-----------------------
   0 C :    0.236359
   1 C :   -0.220564
   2 C :   -0.215429
   3 H :    0.157138
   4 H :    0.150842
   5 C :   -0.238373
   6 C :   -0.238682
   7 H :    0.162165
   8 H :    0.149214
   9 C :    0.282754
  10 O :   -0.416246
  11 H :    0.372352
  12 C :   -0.184129
  13 H :    0.143901
  14 C :   -0.193042
  15 H :    0.151651
  16 C :    0.367878
  17 O :   -0.433444
  18 O :   -0.238107
  19 C :   -0.252544
  20 H :    0.148920
  21 H :    0.148922
  22 H :    0.158465
Sum of atomic charges:   -0.0000000

LOEWDIN ATOMIC CHARGES
----------------------
   0 C :   -0.165860
   1 C :   -0.093135
   2 C :   -0.086203
   3 H :    0.162026
   4 H :    0.160582
   5 C :   -0.135448
   6 C :   -0.122646
   7 H :    0.160346
   8 H :    0.159104
   9 C :   -0.280552
  10 O :    0.098655
  11 H :    0.212221
  12 C :   -0.076207
  13 H :    0.167603
  14 C :   -0.150122
  15 H :    0.155316
  16 C :   -0.498896
  17 O :    0.047447
  18 O :    0.246293
  19 C :   -0.314985
  20 H :    0.116973
  21 H :    0.116974
  22 H :    0.120513

  Mayer bond orders larger than 0.100000
B(  0-C ,  1-C ) :   1.3134 B(  0-C ,  2-C ) :   1.2958 B(  0-C , 12-C ) :   1.0250
B(  1-C ,  3-H ) :   0.9644 B(  1-C ,  5-C ) :   1.4107 B(  2-C ,  4-H ) :   0.9729
B(  2-C ,  6-C ) :   1.4945 B(  5-C ,  7-H ) :   0.9590 B(  5-C ,  9-C ) :   1.3457
B(  6-C ,  8-H ) :   0.9788 B(  6-C ,  9-C ) :   1.3297 B(  9-C , 10-O ) :   1.1581
B( 10-O , 11-H ) :   0.8469 B( 12-C , 13-H ) :   0.9503 B( 12-C , 14-C ) :   1.7215
B( 14-C , 15-H ) :   0.9365 B( 14-C , 16-C ) :   1.0840 B( 16-C , 17-O ) :   1.9369
B( 16-C , 18-O ) :   1.2236 B( 18-O , 19-C ) :   0.8982 B( 19-C , 20-H ) :   0.9679
B( 19-C , 21-H ) :   0.9679 B( 19-C , 22-H ) :   0.9632

Dispersion correction           -0.020535723
FINAL SINGLE POINT ENERGY      -612.328269165714

DIPOLE MOMENT
-------------
                                X             Y             Z
Electronic contribution:     -0.00026       1.57013       5.24886
Nuclear contribution   :      0.00034      -1.46638      -3.88931
                        -----------------------------------------
Total Dipole Moment    :      0.00008       0.10376       1.35955
                        -----------------------------------------
Magnitude (a.u.)       :      1.36351
Magnitude (Debye)      :      3.46576

Dispersion correction in the Hessian             ... done   (      0.4 sec)

VIBRATIONAL FREQUENCIES
-----------------------

Scaling factor for frequencies =  1.000000000  (already applied!)

   0:         0.00 cm**-1
   1:         0.00 cm**-1
   2:         0.00 cm**-1
   3:         0.00 cm**-1
   4:         0.00 cm**-1
   5:         0.00 cm**-1
   6:        37.16 cm**-1
   7:        63.27 cm**-1
   8:        77.58 cm**-1
   9:        95.28 cm**-1
  10:       155.61 cm**-1
  11:       205.18 cm**-1
  12:       206.87 cm**-1
  13:       213.45 cm**-1
  14:       264.36 cm**-1
  15:       338.81 cm**-1
  16:       378.67 cm**-1
  17:       402.19 cm**-1
  18:       421.87 cm**-1
  19:       426.41 cm**-1
  20:       512.54 cm**-1
  21:       527.22 cm**-1
  22:       531.48 cm**-1
  23:       653.05 cm**-1
  24:       722.98 cm**-1
  25:       729.09 cm**-1
  26:       773.38 cm**-1
  27:       815.23 cm**-1
  28:       828.85 cm**-1
  29:       855.99 cm**-1
  30:       878.66 cm**-1
  31:       896.61 cm**-1
  32:       966.29 cm**-1
  33:       969.02 cm**-1
  34:       980.40 cm**-1
  35:      1026.30 cm**-1
  36:      1030.37 cm**-1
  37:      1063.88 cm**-1
  38:      1129.05 cm**-1
  39:      1170.88 cm**-1
  40:      1185.02 cm**-1
  41:      1195.58 cm**-1
  42:      1203.27 cm**-1
  43:      1218.03 cm**-1
  44:      1237.56 cm**-1
  45:      1318.13 cm**-1
  46:      1323.44 cm**-1
  47:      1346.07 cm**-1
  48:      1361.44 cm**-1
  49:      1398.16 cm**-1
  50:      1464.37 cm**-1
  51:      1465.10 cm**-1
  52:      1475.60 cm**-1
  53:      1484.22 cm**-1
  54:      1555.69 cm**-1
  55:      1639.60 cm**-1
  56:      1659.12 cm**-1
  57:      1692.25 cm**-1
  58:      1748.27 cm**-1
  59:      3066.45 cm**-1
  60:      3146.05 cm**-1
  61:      3165.07 cm**-1
  62:      3181.49 cm**-1
  63:      3187.23 cm**-1
  64:      3198.73 cm**-1
  65:      3201.45 cm**-1
  66:      3211.58 cm**-1
  67:      3216.64 cm**-1
  68:      3810.25 cm**-1

IR SPECTRUM
-----------

 Mode   freq       eps      Int      T**2         TX        TY        TZ
       cm**-1   L/(mol*cm) km/mol    a.u.
----------------------------------------------------------------------------
  6:     37.16   0.001141    5.77  0.009581  ( 0.097884  0.000013 -0.000009)
  7:     63.27   0.000075    0.38  0.000372  (-0.019296 -0.000003  0.000007)
  8:     77.58   0.000246    1.24  0.000990  (-0.000001  0.011281 -0.029374)
  9:     95.28   0.000398    2.01  0.001302  (-0.036083  0.000022 -0.000009)
 10:    155.61   0.000055    0.28  0.000110  ( 0.010504  0.000001  0.000002)
 11:    205.18   0.000004    0.02  0.000006  (-0.002482 -0.000004 -0.000008)
 12:    206.87   0.000372    1.88  0.000561  ( 0.000011 -0.022616 -0.007062)
 13:    213.45   0.001019    5.15  0.001489  ( 0.038589 -0.000007  0.000007)
 14:    264.36   0.001039    5.25  0.001227  ( 0.000000  0.034243  0.007345)
 15:    338.81   0.004468   22.58  0.004115  ( 0.000007 -0.047748 -0.042839)
 16:    378.67   0.000936    4.73  0.000772  (-0.027776 -0.000011  0.000004)
 17:    402.19   0.034201  172.84  0.026537  ( 0.162902 -0.000001 -0.000007)
 18:    421.87   0.008215   41.52  0.006077  (-0.000018  0.011389  0.077117)
 19:    426.41   0.001412    7.14  0.001034  (-0.032149  0.000009  0.000020)
 20:    512.54   0.000817    4.13  0.000497  ( 0.000006  0.019632  0.010573)
 21:    527.22   0.006571   33.21  0.003889  ( 0.062364  0.000001  0.000027)
 22:    531.48   0.010720   54.17  0.006294  (-0.000018  0.011570  0.078489)
 23:    653.05   0.000041    0.21  0.000020  ( 0.000001  0.004422 -0.000036)
 24:    722.98   0.000003    0.02  0.000001  ( 0.001152  0.000007 -0.000012)
 25:    729.09   0.000414    2.09  0.000177  ( 0.000001  0.013171 -0.001946)
 26:    773.38   0.000138    0.70  0.000056  ( 0.007466  0.000005  0.000008)
 27:    815.23   0.003123   15.78  0.001196  ( 0.000002 -0.024086  0.024808)
 28:    828.85   0.001409    7.12  0.000531  ( 0.023033 -0.000004  0.000003)
 29:    855.99   0.025770  130.23  0.009395  ( 0.096926  0.000002 -0.000008)
 30:    878.66   0.004750   24.01  0.001687  ( 0.000004  0.021309  0.035114)
 31:    896.61   0.002614   13.21  0.000910  ( 0.030163 -0.000003  0.000009)
 32:    966.29   0.000385    1.95  0.000124  ( 0.011150  0.000005 -0.000015)
 33:    969.02   0.002905   14.68  0.000935  ( 0.000008 -0.019238  0.023777)
 34:    980.40   0.000074    0.37  0.000023  (-0.004846 -0.000007  0.000003)
 35:   1026.30   0.009804   49.55  0.002981  (-0.054600 -0.000001  0.000005)
 36:   1030.37   0.000073    0.37  0.000022  ( 0.000004  0.000246 -0.004693)
 37:   1063.88   0.000785    3.97  0.000230  (-0.000004 -0.009446  0.011878)
 38:   1129.05   0.008540   43.16  0.002360  (-0.000000 -0.038388 -0.029780)
 39:   1170.88   0.000168    0.85  0.000045  ( 0.006693 -0.000001  0.000009)
 40:   1185.02   0.147924  747.55  0.038954  ( 0.000002  0.042610  0.192714)
 41:   1195.58   0.079932  403.94  0.020863  ( 0.000000  0.029472  0.141403)
 42:   1203.27   0.008879   44.87  0.002303  ( 0.000004 -0.041723 -0.023702)
 43:   1218.03   0.062565  316.18  0.016029  (-0.000005  0.070151  0.105395)
 44:   1237.56   0.083812  423.55  0.021134  ( 0.000001 -0.060065 -0.132386)
 45:   1318.13   0.084919  429.15  0.020104  ( 0.000004  0.022478  0.139997)
 46:   1323.44   0.001135    5.74  0.000268  (-0.000001  0.012107 -0.011001)
 47:   1346.07   0.011548   58.36  0.002677  (-0.000004  0.049185  0.016061)
 48:   1361.44   0.045825  231.58  0.010504  ( 0.000002 -0.048494 -0.090289)
 49:   1398.16   0.001225    6.19  0.000273  (-0.000002  0.014930 -0.007101)
 50:   1464.37   0.003094   15.64  0.000659  ( 0.025679 -0.000029 -0.000068)
 51:   1465.10   0.014496   73.26  0.003088  ( 0.000032  0.020843  0.051510)
 52:   1475.60   0.002675   13.52  0.000566  (-0.000001 -0.023132 -0.005531)
 53:   1484.22   0.002273   11.49  0.000478  ( 0.000001 -0.002832 -0.021678)
 54:   1555.69   0.070552  356.54  0.014152  (-0.000004 -0.014384 -0.118091)
 55:   1639.60   0.076000  384.07  0.014465  (-0.000002  0.011492 -0.119720)
 56:   1659.12   0.155901  787.86  0.029323  ( 0.000004  0.014105  0.170659)
 57:   1692.25   0.046284  233.90  0.008535  (-0.000001  0.002554  0.092350)
 58:   1748.27   0.083160  420.26  0.014844  ( 0.000000  0.108859 -0.054715)
 59:   3066.45   0.008117   41.02  0.000826  (-0.000002  0.003284  0.028552)
 60:   3146.05   0.004892   24.72  0.000485  (-0.022029  0.000000 -0.000003)
 61:   3165.07   0.000483    2.44  0.000048  ( 0.000000 -0.004984  0.004777)
 62:   3181.49   0.003253   16.44  0.000319  ( 0.000001 -0.017397 -0.004047)
 63:   3187.23   0.002226   11.25  0.000218  (-0.000001  0.002033 -0.014624)
 64:   3198.73   0.001119    5.66  0.000109  (-0.000000 -0.003900 -0.009694)
 65:   3201.45   0.001221    6.17  0.000119  ( 0.000000  0.009838  0.004710)
 66:   3211.58   0.000014    0.07  0.000001  (-0.000000 -0.000308 -0.001119)
 67:   3216.64   0.001736    8.77  0.000168  ( 0.000000  0.008001 -0.010219)
 68:   3810.25   0.057292  289.53  0.004692  (-0.000003 -0.042403 -0.053798)

--------------------------
THERMOCHEMISTRY AT 298.15K
--------------------------

Temperature         ... 298.15 K
Pressure            ... 1.00 atm
Total Mass          ... 178.19 AMU

Throughout the following assumptions are being made:
  (1) The electronic state is orbitally nondegenerate
  (2) There are no thermally accessible electronically excited states
  (3) Hindered rotations indicated by low frequency modes are not
      treated as such but are treated as vibrations and this may
      cause some error
  (4) All equations used are the standard statistical mechanics
      equations for an ideal gas
  (5) All vibrations are strictly harmonic

freq.      37.16  E(vib)   ...       0.54
freq.      63.27  E(vib)   ...       0.51
freq.      77.58  E(vib)   ...       0.49
freq.      95.28  E(vib)   ...       0.47
freq.     155.61  E(vib)   ...       0.40
freq.     205.18  E(vib)   ...       0.35
freq.     206.87  E(vib)   ...       0.35
freq.     213.45  E(vib)   ...       0.34
freq.     264.36  E(vib)   ...       0.29
freq.     338.81  E(vib)   ...       0.23
freq.     378.67  E(vib)   ...       0.21
freq.     402.19  E(vib)   ...       0.19
freq.     421.87  E(vib)   ...       0.18
freq.     426.41  E(vib)   ...       0.18
freq.     512.54  E(vib)   ...       0.13
freq.     527.22  E(vib)   ...       0.13
freq.     531.48  E(vib)   ...       0.13
freq.     653.05  E(vib)   ...       0.08
freq.     722.98  E(vib)   ...       0.07
freq.     729.09  E(vib)   ...       0.06
freq.     773.38  E(vib)   ...       0.05
freq.     815.23  E(vib)   ...       0.05
freq.     828.85  E(vib)   ...       0.04
freq.     855.99  E(vib)   ...       0.04
freq.     878.66  E(vib)   ...       0.04
freq.     896.61  E(vib)   ...       0.03
freq.     966.29  E(vib)   ...       0.03
freq.     969.02  E(vib)   ...       0.03
freq.     980.40  E(vib)   ...       0.02
freq.    1026.30  E(vib)   ...       0.02
freq.    1030.37  E(vib)   ...       0.02
freq.    1063.88  E(vib)   ...       0.02
freq.    1129.05  E(vib)   ...       0.01
freq.    1170.88  E(vib)   ...       0.01
freq.    1185.02  E(vib)   ...       0.01
freq.    1195.58  E(vib)   ...       0.01
freq.    1203.27  E(vib)   ...       0.01
freq.    1218.03  E(vib)   ...       0.01
freq.    1237.56  E(vib)   ...       0.01
freq.    1318.13  E(vib)   ...       0.01
freq.    1323.44  E(vib)   ...       0.01
freq.    1346.07  E(vib)   ...       0.01
freq.    1361.44  E(vib)   ...       0.01
freq.    1398.16  E(vib)   ...       0.00
freq.    1464.37  E(vib)   ...       0.00
freq.    1465.10  E(vib)   ...       0.00
freq.    1475.60  E(vib)   ...       0.00
freq.    1484.22  E(vib)   ...       0.00
freq.    1555.69  E(vib)   ...       0.00
freq.    1639.60  E(vib)   ...       0.00
freq.    1659.12  E(vib)   ...       0.00
freq.    1692.25  E(vib)   ...       0.00
freq.    1748.27  E(vib)   ...       0.00
freq.    3066.45  E(vib)   ...       0.00
freq.    3146.05  E(vib)   ...       0.00
freq.    3165.07  E(vib)   ...       0.00
freq.    3181.49  E(vib)   ...       0.00
freq.    3187.23  E(vib)   ...       0.00
freq.    3198.73  E(vib)   ...       0.00
freq.    3201.45  E(vib)   ...       0.00
freq.    3211.58  E(vib)   ...       0.00
freq.    3216.64  E(vib)   ...       0.00
freq.    3810.25  E(vib)   ...       0.00

------------
INNER ENERGY
------------

The inner energy is: U= E(el) + E(ZPE) + E(vib) + E(rot) + E(trans)
    E(el)   - is the total energy from the electronic structure calculation
              = E(kin-el) + E(nuc-el) + E(el-el) + E(nuc-nuc)
    E(ZPE)  - the the zero temperature vibrational energy from the frequency calculation
    E(vib)  - the the finite temperature correction to E(ZPE) due to population
              of excited vibrational states
    E(rot)  - is the rotational thermal energy
    E(trans)- is the translational thermal energy

Summary of contributions to the inner energy U:
Electronic energy                ...   -612.32826917 Eh
Zero point energy                ...      0.18157860 Eh     113.94 kcal/mol
Thermal vibrational correction   ...      0.00930936 Eh       5.84 kcal/mol
Thermal rotational correction    ...      0.00141627 Eh       0.89 kcal/mol
Thermal translational correction ...      0.00141627 Eh       0.89 kcal/mol
-----------------------------------------------------------------------
Total thermal energy                   -612.13454867 Eh

Summary of corrections to the electronic energy:
(perhaps to be used in another calculation)
Total thermal correction                  0.01214190 Eh       7.62 kcal/mol
Non-thermal (ZPE) correction              0.18157860 Eh     113.94 kcal/mol
-----------------------------------------------------------------------
Total correction                          0.19372050 Eh     121.56 kcal/mol

--------
ENTHALPY
--------

The enthalpy is H = U + kB*T
                kB is Boltzmann's constant
Total free energy                 ...   -612.13454867 Eh
Thermal Enthalpy correction       ...      0.00094421 Eh       0.59 kcal/mol
-----------------------------------------------------------------------
Total Enthalpy                    ...   -612.13360446 Eh

Note: Only C1 symmetry has been detected, increase convergence thresholds
      if your molecule has a higher symmetry. Symmetry factor of 1.0 is
      used for the rotational entropy correction.

Note: Rotational entropy computed according to Herzberg
Infrared and Raman Spectra, Chapter V,1, Van Nostrand Reinhold, 1945
Point Group:  C1, Symmetry Number:   1
Rotational constants in cm-1:     0.114141     0.009095     0.008437

Vibrational entropy computed according to the QRRHO of S. Grimme
Chem.Eur.J. 2012 18 9955

-------
ENTROPY
-------

The entropy contributions are T*S = T*(S(el)+S(vib)+S(rot)+S(trans))
     S(el)   - electronic entropy
     S(vib)  - vibrational entropy
     S(rot)  - rotational entropy
     S(trans)- translational entropy
The entropies will be listed as multiplied by the temperature to get
units of energy

Electronic entropy                ...      0.00000000 Eh      0.00 kcal/mol
Vibrational entropy               ...      0.01619229 Eh     10.16 kcal/mol
Rotational entropy                ...      0.01500850 Eh      9.42 kcal/mol
Translational entropy             ...      0.01968937 Eh     12.36 kcal/mol
-----------------------------------------------------------------------
Final entropy term                ...      0.05089017 Eh     31.93 kcal/mol

In case the symmetry of your molecule has not been determined correctly
or in case you have a reason to use a different symmetry number we print
out the resulting rotational entropy values for sn=1,12 :
 --------------------------------------------------------

                             ****ORCA TERMINATED NORMALLY****
TOTAL RUN TIME: 0 days 0 hours 9 minutes 14 seconds 504 msec
