                         Program Version 5.0.4 -  RELEASE  -
|  1> %pal nprocs 24 end
|  2> %maxcore 3500
|  3> ! PBE0 D3BJ def2-TZVP TightSCF OPT FREQ TightOpt
|  4> ! CPCM(dmso)
|  5> %scf
|  6> MaxIter 800
|  7> end
|  8> %geom
|  9> MaxIter 800
| 10> MaxStep 0.2
| 11> end
| 12> *xyz -1 1
| 13>
| 14> C      -0.05364000     -0.53629400     -1.62396300
| 15> C      -0.29373700      0.62799500     -0.88164600
| 16> C       0.23169700     -1.68991500     -0.87733700
| 17> H      -0.50837700      1.54966000     -1.41933700
| 18> H       0.45859400     -2.61848800     -1.39508700
| 19> C      -0.27660500      0.64848400      0.50121600
| 20> C       0.25019100     -1.68771600      0.50364800
| 21> H      -0.47073100      1.57839000      1.03037200
| 22> H       0.48229000     -2.60494300      1.03986300
| 23> C      -0.00897100     -0.51600800      1.27961800
| 24> O       0.00928800     -0.51338700      2.55969700
| 25> C      -0.11665200     -0.49594900     -3.08144500
| 26> H      -0.13846200      0.49956900     -3.51675800
| 27> C      -0.14900000     -1.56456900     -3.89968500
| 28> H      -0.18932000     -2.56842000     -3.48425500
| 29> N      -0.09289200     -1.55789100     -5.28066500
| 30> C      -0.82760400     -2.60924400     -5.94723000
| 31> H      -0.47842300     -2.70827900     -6.97715500
| 32> H      -0.66023700     -3.55657100     -5.43129800
| 33> H      -1.91194200     -2.41804200     -5.96865300
| 34> C      -0.13515100     -0.28299300     -5.94532700
| 35> H       0.00910200     -0.43251500     -7.01625600
| 36> H      -1.09226600      0.24244700     -5.79411600
| 37> H       0.66427100      0.36269900     -5.57451100
| 38> *
| 39>
| 40>                          ****END OF INPUT****
 Total Charge           Charge          ....   -1
 Multiplicity           Mult            ....    1
 Number of Electrons    NEL             ....   88
Dispersion correction           -0.021863740
FINAL SINGLE POINT ENERGY      -517.971102567004
Dispersion correction            ... done
Dispersion correction           -0.021861837
FINAL SINGLE POINT ENERGY      -517.971103044728
Dispersion correction            ... done
                    ***********************HURRAY********************

CARTESIAN COORDINATES (ANGSTROEM)
---------------------------------
  C     -0.053442   -0.536353   -1.623771
  C     -0.293637    0.628179   -0.881381
  C      0.231777   -1.690041   -0.876788
  H     -0.508197    1.549737   -1.419156
  H      0.458603   -2.618572   -1.394508
  C     -0.276641    0.648764    0.501637
  C      0.250157   -1.687722    0.504353
  H     -0.470798    1.578712    1.030578
  H      0.482149   -2.604892    1.040591
  C     -0.009068   -0.515793    1.280466
  O      0.008994   -0.513071    2.560652
  C     -0.116219   -0.496272   -3.081591
  H     -0.137945    0.499115   -3.517009
  C     -0.148636   -1.564730   -3.900190
  H     -0.189012   -2.568621   -3.485105
  N     -0.092689   -1.557999   -5.281339
  C     -0.827714   -2.609253   -5.947845
  H     -0.479040   -2.707746   -6.977876
  H     -0.659996   -3.556554   -5.432162
  H     -1.911914   -2.417777   -5.968395
  C     -0.135332   -0.283013   -5.945911
  H      0.008989   -0.432345   -7.016737
  H     -1.092679    0.241701   -5.794402
  H      0.663714    0.362565   -5.574418

 Multiplicity           Mult            ....    1
 Number of Electrons    NEL             ....   88
 Basis Dimension        Dim             ....  444

ORBITAL ENERGIES
----------------

  NO   OCC          E(Eh)            E(eV)
   0   2.0000     -19.108679      -519.9736
   1   2.0000     -14.391853      -391.6222
   2   2.0000     -10.238476      -278.6031
   3   2.0000     -10.234734      -278.5013
   4   2.0000     -10.232736      -278.4469
   5   2.0000     -10.232208      -278.4325
   6   2.0000     -10.200631      -277.5733
   7   2.0000     -10.200158      -277.5604
   8   2.0000     -10.199318      -277.5375
   9   2.0000     -10.196280      -277.4549
  10   2.0000     -10.185455      -277.1603
  11   2.0000     -10.183469      -277.1063
  12   2.0000      -0.972977       -26.4760
  13   2.0000      -0.965886       -26.2831
  14   2.0000      -0.847763       -23.0688
  15   2.0000      -0.778176       -21.1752
  16   2.0000      -0.740330       -20.1454
  17   2.0000      -0.732251       -19.9256
  18   2.0000      -0.713850       -19.4249
  19   2.0000      -0.651231       -17.7209
  20   2.0000      -0.601623       -16.3710
  21   2.0000      -0.576262       -15.6809
  22   2.0000      -0.549806       -14.9610
  23   2.0000      -0.510079       -13.8800
  24   2.0000      -0.493278       -13.4228
  25   2.0000      -0.470417       -12.8007
  26   2.0000      -0.458495       -12.4763
  27   2.0000      -0.441187       -12.0053
  28   2.0000      -0.434035       -11.8107
  29   2.0000      -0.403957       -10.9922
  30   2.0000      -0.400401       -10.8955
  31   2.0000      -0.395109       -10.7515
  32   2.0000      -0.390353       -10.6220
  33   2.0000      -0.381547       -10.3824
  34   2.0000      -0.379775       -10.3342
  35   2.0000      -0.364857        -9.9283
  36   2.0000      -0.345841        -9.4108
  37   2.0000      -0.332957        -9.0602
  38   2.0000      -0.323334        -8.7984
  39   2.0000      -0.294518        -8.0142
  40   2.0000      -0.245441        -6.6788
  41   2.0000      -0.222239        -6.0474
  42   2.0000      -0.216608        -5.8942
  43   2.0000      -0.155553        -4.2328
  44   0.0000       0.008220         0.2237
  45   0.0000       0.020705         0.5634
  46   0.0000       0.059762         1.6262
  47   0.0000       0.077457         2.1077
  48   0.0000       0.084241         2.2923

MULLIKEN ATOMIC CHARGES
-----------------------
   0 C :    0.185360
   1 C :   -0.257453
   2 C :   -0.277836
   3 H :    0.121385
   4 H :    0.120289
   5 C :   -0.310941
   6 C :   -0.293368
   7 H :    0.092979
   8 H :    0.094844
   9 C :    0.252442
  10 O :   -0.674012
  11 C :   -0.320630
  12 H :    0.133534
  13 C :   -0.100599
  14 H :    0.139800
  15 N :   -0.085798
  16 C :   -0.306711
  17 H :    0.143438
  18 H :    0.148115
  19 H :    0.114300
  20 C :   -0.339996
  21 H :    0.151781
  22 H :    0.122287
  23 H :    0.146786
Sum of atomic charges:   -1.0000000

LOEWDIN ATOMIC CHARGES
----------------------
   0 C :   -0.213935
   1 C :   -0.161942
   2 C :   -0.155899
   3 H :    0.145270
   4 H :    0.144968
   5 C :   -0.199342
   6 C :   -0.192475
   7 H :    0.133911
   8 H :    0.134493
   9 C :   -0.443176
  10 O :   -0.210339
  11 C :   -0.208569
  12 H :    0.150515
  13 C :   -0.246255
  14 H :    0.147079
  15 N :    0.093147
  16 C :   -0.314269
  17 H :    0.120934
  18 H :    0.124878
  19 H :    0.109013
  20 C :   -0.316814
  21 H :    0.124763
  22 H :    0.110418
  23 H :    0.123626

  Mayer bond orders larger than 0.100000
B(  0-C ,  1-C ) :   1.3007 B(  0-C ,  2-C ) :   1.3037 B(  0-C , 11-C ) :   1.0246
B(  1-C ,  3-H ) :   0.9708 B(  1-C ,  5-C ) :   1.4043 B(  2-C ,  4-H ) :   0.9585
B(  2-C ,  6-C ) :   1.4343 B(  5-C ,  7-H ) :   0.9953 B(  5-C ,  9-C ) :   1.2184
B(  6-C ,  8-H ) :   0.9907 B(  6-C ,  9-C ) :   1.2026 B(  9-C , 10-O ) :   1.6790
B( 11-C , 12-H ) :   0.9604 B( 11-C , 13-C ) :   1.7441 B( 13-C , 14-H ) :   0.9234
B( 13-C , 15-N ) :   1.1804 B( 15-N , 16-C ) :   0.9623 B( 15-N , 20-C ) :   0.9808
B( 16-C , 17-H ) :   0.9667 B( 16-C , 18-H ) :   0.9640 B( 16-C , 19-H ) :   0.9580
B( 20-C , 21-H ) :   0.9617 B( 20-C , 22-H ) :   0.9590 B( 20-C , 23-H ) :   0.9589

Dispersion correction           -0.021861517
FINAL SINGLE POINT ENERGY      -517.971103120855

DIPOLE MOMENT
-------------
                                X             Y             Z
Electronic contribution:      1.62455       1.33310      12.35956
Nuclear contribution   :     -2.09881      -2.16128     -19.65573
                        -----------------------------------------
Total Dipole Moment    :     -0.47425      -0.82818      -7.29616
                        -----------------------------------------
Magnitude (a.u.)       :      7.35831
Magnitude (Debye)      :     18.70335

Dispersion correction in the Hessian             ... done   (      0.4 sec)

VIBRATIONAL FREQUENCIES
-----------------------

Scaling factor for frequencies =  1.000000000  (already applied!)

   0:         0.00 cm**-1
   1:         0.00 cm**-1
   2:         0.00 cm**-1
   3:         0.00 cm**-1
   4:         0.00 cm**-1
   5:         0.00 cm**-1
   6:        38.61 cm**-1
   7:        60.03 cm**-1
   8:        91.50 cm**-1
   9:       139.44 cm**-1
  10:       189.59 cm**-1
  11:       217.34 cm**-1
  12:       236.84 cm**-1
  13:       270.99 cm**-1
  14:       309.38 cm**-1
  15:       322.10 cm**-1
  16:       400.64 cm**-1
  17:       428.54 cm**-1
  18:       447.49 cm**-1
  19:       458.82 cm**-1
  20:       508.97 cm**-1
  21:       532.44 cm**-1
  22:       580.45 cm**-1
  23:       648.80 cm**-1
  24:       745.43 cm**-1
  25:       812.94 cm**-1
  26:       825.10 cm**-1
  27:       833.53 cm**-1
  28:       856.14 cm**-1
  29:       859.03 cm**-1
  30:       903.50 cm**-1
  31:       950.17 cm**-1
  32:       957.33 cm**-1
  33:       959.57 cm**-1
  34:      1001.16 cm**-1
  35:      1078.12 cm**-1
  36:      1096.66 cm**-1
  37:      1109.48 cm**-1
  38:      1117.32 cm**-1
  39:      1162.14 cm**-1
  40:      1173.47 cm**-1
  41:      1225.19 cm**-1
  42:      1247.82 cm**-1
  43:      1270.76 cm**-1
  44:      1318.86 cm**-1
  45:      1331.47 cm**-1
  46:      1375.82 cm**-1
  47:      1379.03 cm**-1
  48:      1396.13 cm**-1
  49:      1431.01 cm**-1
  50:      1452.74 cm**-1
  51:      1459.80 cm**-1
  52:      1463.21 cm**-1
  53:      1466.85 cm**-1
  54:      1485.01 cm**-1
  55:      1500.53 cm**-1
  56:      1543.03 cm**-1
  57:      1561.46 cm**-1
  58:      1649.83 cm**-1
  59:      1700.73 cm**-1
  60:      2964.32 cm**-1
  61:      2972.39 cm**-1
  62:      3081.56 cm**-1
  63:      3083.93 cm**-1
  64:      3132.37 cm**-1
  65:      3135.02 cm**-1
  66:      3138.84 cm**-1
  67:      3145.70 cm**-1
  68:      3160.47 cm**-1
  69:      3161.41 cm**-1
  70:      3168.30 cm**-1
  71:      3168.96 cm**-1

IR SPECTRUM
-----------

 Mode   freq       eps      Int      T**2         TX        TY        TZ
       cm**-1   L/(mol*cm) km/mol    a.u.
----------------------------------------------------------------------------
  6:     38.61   0.000169    0.86  0.001368  ( 0.019618  0.031360  0.000407)
  7:     60.03   0.000246    1.24  0.001279  ( 0.028022  0.011355  0.019100)
  8:     91.50   0.000834    4.22  0.002846  (-0.011013 -0.005224  0.051934)
  9:    139.44   0.004603   23.26  0.010300  ( 0.048291 -0.029503 -0.084249)
 10:    189.59   0.004423   22.35  0.007280  (-0.028350 -0.032199 -0.073754)
 11:    217.34   0.000028    0.14  0.000040  (-0.002164 -0.004512  0.003913)
 12:    236.84   0.000612    3.09  0.000807  (-0.016873  0.000751  0.022839)
 13:    270.99   0.001148    5.80  0.001322  (-0.007138  0.010209  0.034157)
 14:    309.38   0.000751    3.79  0.000757  ( 0.018038 -0.017047 -0.011893)
 15:    322.10   0.002365   11.95  0.002291  (-0.003924 -0.026008 -0.039995)
 16:    400.64   0.004103   20.74  0.003196  (-0.002537  0.018197  0.053465)
 17:    428.54   0.000648    3.27  0.000472  ( 0.000369  0.004393  0.021266)
 18:    447.49   0.004025   20.34  0.002807  ( 0.003255  0.036510  0.038254)
 19:    458.82   0.000421    2.13  0.000286  (-0.004205  0.014416 -0.007784)
 20:    508.97   0.002025   10.23  0.001242  (-0.025467 -0.002229 -0.024250)
 21:    532.44   0.006626   33.48  0.003883  ( 0.058656  0.009304 -0.018872)
 22:    580.45   0.024521  123.92  0.013183  ( 0.014882 -0.013580 -0.113036)
 23:    648.80   0.000039    0.20  0.000019  (-0.001297 -0.002651 -0.003164)
 24:    745.43   0.002096   10.59  0.000878  (-0.010753 -0.008750 -0.026178)
 25:    812.94   0.000037    0.18  0.000014  ( 0.003429 -0.000970  0.001162)
 26:    825.10   0.001418    7.16  0.000536  ( 0.015192 -0.016358  0.006148)
 27:    833.53   0.004615   23.32  0.001728  (-0.013548 -0.023711 -0.031338)
 28:    856.14   0.018224   92.10  0.006643  (-0.080461 -0.004899  0.012025)
 29:    859.03   0.006277   31.72  0.002280  ( 0.043870  0.018533  0.003503)
 30:    903.50   0.001233    6.23  0.000426  ( 0.017953 -0.009997 -0.001936)
 31:    950.17   0.000445    2.25  0.000146  (-0.004507  0.001576 -0.011111)
 32:    957.33   0.025283  127.77  0.008242  ( 0.078023  0.008318  0.045659)
 33:    959.57   0.000205    1.04  0.000067  ( 0.007172  0.002078  0.003299)
 34:   1001.16   0.007293   36.86  0.002273  ( 0.002142 -0.003145 -0.047528)
 35:   1078.12   0.002703   13.66  0.000782  (-0.008810 -0.026513  0.001382)
 36:   1096.66   0.049472  250.01  0.014078  ( 0.008183  0.051178  0.106730)
 37:   1109.48   0.018620   94.10  0.005237  ( 0.014760 -0.007083  0.070493)
 38:   1117.32   0.002222   11.23  0.000621  ( 0.007736  0.023070 -0.005351)
 39:   1162.14   0.022078  111.57  0.005928  (-0.013922  0.021663  0.072563)
 40:   1173.47   0.014253   72.03  0.003790  ( 0.004035  0.001726  0.061409)
 41:   1225.19   0.010491   53.02  0.002672  (-0.001266  0.051118  0.007581)
 42:   1247.82   0.004674   23.62  0.001169  ( 0.010636  0.022924 -0.023026)
 43:   1270.76   0.001500    7.58  0.000368  (-0.007214  0.012654 -0.012493)
 44:   1318.86   0.008678   43.85  0.002053  (-0.010054  0.010753 -0.042855)
 45:   1331.47   0.003670   18.54  0.000860  (-0.009137  0.024418 -0.013430)
 46:   1375.82   0.046962  237.33  0.010652  ( 0.009686  0.037653  0.095606)
 47:   1379.03   0.024581  124.22  0.005563  ( 0.000390  0.012596 -0.073510)
 48:   1396.13   0.129450  654.19  0.028935  ( 0.006011  0.017786  0.169063)
 49:   1431.01   0.000791    4.00  0.000173  ( 0.002287  0.003963  0.012313)
 50:   1452.74   0.001517    7.67  0.000326  ( 0.012141 -0.008561  0.010256)
 51:   1459.80   0.001629    8.23  0.000348  ( 0.003911  0.017023  0.006564)
 52:   1463.21   0.003926   19.84  0.000837  ( 0.013451  0.025610  0.000725)
 53:   1466.85   0.011320   57.20  0.002408  ( 0.025968 -0.022157 -0.035254)
 54:   1485.01   0.009045   45.71  0.001901  (-0.000647  0.017307  0.040010)
 55:   1500.53   0.036131  182.59  0.007514  ( 0.008418 -0.011297  0.085532)
 56:   1543.03   0.150261  759.36  0.030389  ( 0.003096  0.000374  0.174296)
 57:   1561.46   0.010554   53.34  0.002109  (-0.007662  0.044342  0.009185)
 58:   1649.83   0.108558  548.61  0.020534  (-0.004054 -0.012002 -0.142735)
 59:   1700.73   0.040223  203.27  0.007381  (-0.000984 -0.028151 -0.081161)
 60:   2964.32   0.021235  107.31  0.002235  (-0.018756  0.036538 -0.023423)
 61:   2972.39   0.054977  277.83  0.005772  ( 0.055272  0.016061  0.049588)
 62:   3081.56   0.012296   62.14  0.001245  ( 0.029296  0.003063 -0.019431)
 63:   3083.93   0.007424   37.52  0.000751  ( 0.010190 -0.022059 -0.012681)
 64:   3132.37   0.003739   18.89  0.000372  ( 0.002203  0.012814 -0.014263)
 65:   3135.02   0.007260   36.69  0.000723  (-0.003966 -0.004819 -0.026147)
 66:   3138.84   0.008966   45.31  0.000891  ( 0.002510 -0.007832  0.028702)
 67:   3145.70   0.008336   42.13  0.000827  (-0.001030  0.005343 -0.028238)
 68:   3160.47   0.006345   32.06  0.000626  (-0.006651  0.024124 -0.000524)
 69:   3161.41   0.013867   70.08  0.001369  (-0.006013  0.030858  0.019504)
 70:   3168.30   0.002902   14.67  0.000286  ( 0.002462  0.007132 -0.015130)
 71:   3168.96   0.014878   75.19  0.001465  ( 0.005098 -0.030096  0.023093)

--------------------------
THERMOCHEMISTRY AT 298.15K
--------------------------

Temperature         ... 298.15 K
Pressure            ... 1.00 atm
Total Mass          ... 162.21 AMU

Throughout the following assumptions are being made:
  (1) The electronic state is orbitally nondegenerate
  (2) There are no thermally accessible electronically excited states
  (3) Hindered rotations indicated by low frequency modes are not
      treated as such but are treated as vibrations and this may
      cause some error
  (4) All equations used are the standard statistical mechanics
      equations for an ideal gas
  (5) All vibrations are strictly harmonic

freq.      38.61  E(vib)   ...       0.54
freq.      60.03  E(vib)   ...       0.51
freq.      91.50  E(vib)   ...       0.47
freq.     139.44  E(vib)   ...       0.42
freq.     189.59  E(vib)   ...       0.36
freq.     217.34  E(vib)   ...       0.34
freq.     236.84  E(vib)   ...       0.32
freq.     270.99  E(vib)   ...       0.29
freq.     309.38  E(vib)   ...       0.26
freq.     322.10  E(vib)   ...       0.25
freq.     400.64  E(vib)   ...       0.19
freq.     428.54  E(vib)   ...       0.18
freq.     447.49  E(vib)   ...       0.17
freq.     458.82  E(vib)   ...       0.16
freq.     508.97  E(vib)   ...       0.14
freq.     532.44  E(vib)   ...       0.13
freq.     580.45  E(vib)   ...       0.11
freq.     648.80  E(vib)   ...       0.08
freq.     745.43  E(vib)   ...       0.06
freq.     812.94  E(vib)   ...       0.05
freq.     825.10  E(vib)   ...       0.04
freq.     833.53  E(vib)   ...       0.04
freq.     856.14  E(vib)   ...       0.04
freq.     859.03  E(vib)   ...       0.04
freq.     903.50  E(vib)   ...       0.03
freq.     950.17  E(vib)   ...       0.03
freq.     957.33  E(vib)   ...       0.03
freq.     959.57  E(vib)   ...       0.03
freq.    1001.16  E(vib)   ...       0.02
freq.    1078.12  E(vib)   ...       0.02
freq.    1096.66  E(vib)   ...       0.02
freq.    1109.48  E(vib)   ...       0.02
freq.    1117.32  E(vib)   ...       0.01
freq.    1162.14  E(vib)   ...       0.01
freq.    1173.47  E(vib)   ...       0.01
freq.    1225.19  E(vib)   ...       0.01
freq.    1247.82  E(vib)   ...       0.01
freq.    1270.76  E(vib)   ...       0.01
freq.    1318.86  E(vib)   ...       0.01
freq.    1331.47  E(vib)   ...       0.01
freq.    1375.82  E(vib)   ...       0.01
freq.    1379.03  E(vib)   ...       0.01
freq.    1396.13  E(vib)   ...       0.00
freq.    1431.01  E(vib)   ...       0.00
freq.    1452.74  E(vib)   ...       0.00
freq.    1459.80  E(vib)   ...       0.00
freq.    1463.21  E(vib)   ...       0.00
freq.    1466.85  E(vib)   ...       0.00
freq.    1485.01  E(vib)   ...       0.00
freq.    1500.53  E(vib)   ...       0.00
freq.    1543.03  E(vib)   ...       0.00
freq.    1561.46  E(vib)   ...       0.00
freq.    1649.83  E(vib)   ...       0.00
freq.    1700.73  E(vib)   ...       0.00
freq.    2964.32  E(vib)   ...       0.00
freq.    2972.39  E(vib)   ...       0.00
freq.    3081.56  E(vib)   ...       0.00
freq.    3083.93  E(vib)   ...       0.00
freq.    3132.37  E(vib)   ...       0.00
freq.    3135.02  E(vib)   ...       0.00
freq.    3138.84  E(vib)   ...       0.00
freq.    3145.70  E(vib)   ...       0.00
freq.    3160.47  E(vib)   ...       0.00
freq.    3161.41  E(vib)   ...       0.00
freq.    3168.30  E(vib)   ...       0.00
freq.    3168.96  E(vib)   ...       0.00

------------
INNER ENERGY
------------

The inner energy is: U= E(el) + E(ZPE) + E(vib) + E(rot) + E(trans)
    E(el)   - is the total energy from the electronic structure calculation
              = E(kin-el) + E(nuc-el) + E(el-el) + E(nuc-nuc)
    E(ZPE)  - the the zero temperature vibrational energy from the frequency calculation
    E(vib)  - the the finite temperature correction to E(ZPE) due to population
              of excited vibrational states
    E(rot)  - is the rotational thermal energy
    E(trans)- is the translational thermal energy

Summary of contributions to the inner energy U:
Electronic energy                ...   -517.97110312 Eh
Zero point energy                ...      0.19796281 Eh     124.22 kcal/mol
Thermal vibrational correction   ...      0.00873576 Eh       5.48 kcal/mol
Thermal rotational correction    ...      0.00141627 Eh       0.89 kcal/mol
Thermal translational correction ...      0.00141627 Eh       0.89 kcal/mol
-----------------------------------------------------------------------
Total thermal energy                   -517.76157201 Eh

Summary of corrections to the electronic energy:
(perhaps to be used in another calculation)
Total thermal correction                  0.01156830 Eh       7.26 kcal/mol
Non-thermal (ZPE) correction              0.19796281 Eh     124.22 kcal/mol
-----------------------------------------------------------------------
Total correction                          0.20953111 Eh     131.48 kcal/mol

--------
ENTHALPY
--------

The enthalpy is H = U + kB*T
                kB is Boltzmann's constant
Total free energy                 ...   -517.76157201 Eh
Thermal Enthalpy correction       ...      0.00094421 Eh       0.59 kcal/mol
-----------------------------------------------------------------------
Total Enthalpy                    ...   -517.76062780 Eh

Note: Only C1 symmetry has been detected, increase convergence thresholds
      if your molecule has a higher symmetry. Symmetry factor of 1.0 is
      used for the rotational entropy correction.

Note: Rotational entropy computed according to Herzberg
Infrared and Raman Spectra, Chapter V,1, Van Nostrand Reinhold, 1945
Point Group:  C1, Symmetry Number:   1
Rotational constants in cm-1:     0.109559     0.012037     0.011027

Vibrational entropy computed according to the QRRHO of S. Grimme
Chem.Eur.J. 2012 18 9955

-------
ENTROPY
-------

The entropy contributions are T*S = T*(S(el)+S(vib)+S(rot)+S(trans))
     S(el)   - electronic entropy
     S(vib)  - vibrational entropy
     S(rot)  - rotational entropy
     S(trans)- translational entropy
The entropies will be listed as multiplied by the temperature to get
units of energy

Electronic entropy                ...      0.00000000 Eh      0.00 kcal/mol
Vibrational entropy               ...      0.01496488 Eh      9.39 kcal/mol
Rotational entropy                ...      0.01476917 Eh      9.27 kcal/mol
Translational entropy             ...      0.01955634 Eh     12.27 kcal/mol
-----------------------------------------------------------------------
Final entropy term                ...      0.04929039 Eh     30.93 kcal/mol

In case the symmetry of your molecule has not been determined correctly

                             ****ORCA TERMINATED NORMALLY****
TOTAL RUN TIME: 0 days 0 hours 8 minutes 17 seconds 268 msec
