                         Program Version 5.0.4 -  RELEASE  -
|  1> %pal nprocs 24 end
|  2> %maxcore 3500
|  3> ! PBE0 D3BJ def2-TZVP TightSCF OPT FREQ TightOpt
|  4> ! CPCM(dmso)
|  5> %scf
|  6> MaxIter 800
|  7> end
|  8> %geom
|  9> MaxIter 800
| 10> MaxStep 0.2
| 11> end
| 12> *xyz -1 1
| 13>
| 14> C      -0.00001300     -0.60915100     -1.64364300
| 15> C       0.00000100      0.63223600     -0.97367100
| 16> C      -0.00001400     -1.76795500     -0.83537900
| 17> H       0.00000000      1.53924200     -1.57360600
| 18> H      -0.00002800     -2.74549400     -1.30878400
| 19> C       0.00002800      0.72661500      0.39378800
| 20> C       0.00001100     -1.69323600      0.53047800
| 21> H       0.00004500      1.69866600      0.87808700
| 22> H       0.00001500     -2.60066100      1.12756400
| 23> C       0.00003000     -0.43676700      1.23426500
| 24> O       0.00005500     -0.36981600      2.49564900
| 25> C      -0.00003700     -0.63585100     -3.06816000
| 26> H      -0.00003100      0.34045100     -3.55112100
| 27> C      -0.00007200     -1.70807300     -3.89830000
| 28> H      -0.00008300     -2.72802400     -3.53342400
| 29> C      -0.00009900     -1.52709100     -5.33194300
| 30> O      -0.00001800     -0.46850900     -5.93951600
| 31> O      -0.00003100     -2.71293100     -5.97721300
| 32> C       0.00004500     -2.65054900     -7.39858800
| 33> H      -0.88910500     -2.13465700     -7.76480400
| 34> H       0.88920600     -2.13460700     -7.76470800
| 35> H       0.00009300     -3.68294800     -7.74206800
| 36> *
| 37>
| 38>                          ****END OF INPUT****
 Total Charge           Charge          ....   -1
 Multiplicity           Mult            ....    1
 Number of Electrons    NEL             ....   94
Dispersion correction           -0.019942379
FINAL SINGLE POINT ENERGY      -611.852224918142
Dispersion correction            ... done
Dispersion correction           -0.019941529
FINAL SINGLE POINT ENERGY      -611.852225748339
Dispersion correction            ... done
Dispersion correction           -0.019941220
FINAL SINGLE POINT ENERGY      -611.852225928920
Dispersion correction            ... done
                    ***********************HURRAY********************

CARTESIAN COORDINATES (ANGSTROEM)
---------------------------------
  C     -0.000015   -0.608258   -1.643596
  C     -0.000087    0.632909   -0.972995
  C      0.000002   -1.767912   -0.835980
  H     -0.000103    1.539805   -1.572981
  H      0.000057   -2.744862   -1.310345
  C     -0.000109    0.726716    0.394774
  C     -0.000018   -1.693761    0.530066
  H     -0.000152    1.698354    0.879621
  H      0.000013   -2.600377    1.128163
  C     -0.000069   -0.437410    1.234044
  O     -0.000062   -0.371400    2.495806
  C      0.000083   -0.634989   -3.068239
  H      0.000105    0.340616   -3.552563
  C      0.000221   -1.707238   -3.898646
  H      0.000217   -2.726661   -3.532544
  C      0.000488   -1.526514   -5.332433
  O      0.000119   -0.468480   -5.940416
  O      0.000106   -2.713344   -5.977021
  C     -0.000150   -2.651462   -7.398213
  H     -0.889033   -2.135367   -7.764726
  H      0.888796   -2.135707   -7.765052
  H     -0.000411   -3.683769   -7.741822

 Multiplicity           Mult            ....    1
 Number of Electrons    NEL             ....   94
 Basis Dimension        Dim             ....  457

ORBITAL ENERGIES
----------------

  NO   OCC          E(Eh)            E(eV)
   0   2.0000     -19.242242      -523.6080
   1   2.0000     -19.176038      -521.8065
   2   2.0000     -19.131576      -520.5967
   3   2.0000     -10.334320      -281.2111
   4   2.0000     -10.260440      -279.2008
   5   2.0000     -10.259513      -279.1755
   6   2.0000     -10.233524      -278.4684
   7   2.0000     -10.216977      -278.0181
   8   2.0000     -10.216918      -278.0165
   9   2.0000     -10.210630      -277.8454
  10   2.0000     -10.207115      -277.7497
  11   2.0000     -10.199147      -277.5329
  12   2.0000     -10.195689      -277.4388
  13   2.0000      -1.125835       -30.6355
  14   2.0000      -1.031104       -28.0578
  15   2.0000      -1.000170       -27.2160
  16   2.0000      -0.865767       -23.5587
  17   2.0000      -0.809501       -22.0277
  18   2.0000      -0.757829       -20.6216
  19   2.0000      -0.755125       -20.5480
  20   2.0000      -0.712052       -19.3759
  21   2.0000      -0.633581       -17.2406
  22   2.0000      -0.612057       -16.6549
  23   2.0000      -0.581930       -15.8351
  24   2.0000      -0.555043       -15.1035
  25   2.0000      -0.522353       -14.2140
  26   2.0000      -0.500296       -13.6138
  27   2.0000      -0.491663       -13.3788
  28   2.0000      -0.480434       -13.0733
  29   2.0000      -0.460221       -12.5232
  30   2.0000      -0.450679       -12.2636
  31   2.0000      -0.428134       -11.6501
  32   2.0000      -0.416892       -11.3442
  33   2.0000      -0.408022       -11.1028
  34   2.0000      -0.407527       -11.0894
  35   2.0000      -0.396774       -10.7968
  36   2.0000      -0.383237       -10.4284
  37   2.0000      -0.366601        -9.9757
  38   2.0000      -0.360169        -9.8007
  39   2.0000      -0.345843        -9.4109
  40   2.0000      -0.337092        -9.1727
  41   2.0000      -0.312459        -8.5024
  42   2.0000      -0.287795        -7.8313
  43   2.0000      -0.276053        -7.5118
  44   2.0000      -0.260659        -7.0929
  45   2.0000      -0.232730        -6.3329
  46   2.0000      -0.185175        -5.0389
  47   0.0000      -0.045488        -1.2378
  48   0.0000       0.008164         0.2222
  49   0.0000       0.051410         1.3989
  50   0.0000       0.071137         1.9357
  51   0.0000       0.084545         2.3006

MULLIKEN ATOMIC CHARGES
-----------------------
   0 C :    0.195324
   1 C :   -0.225628
   2 C :   -0.240283
   3 H :    0.136487
   4 H :    0.136564
   5 C :   -0.299842
   6 C :   -0.280831
   7 H :    0.109403
   8 H :    0.111900
   9 C :    0.282912
  10 O :   -0.598764
  11 C :   -0.161030
  12 H :    0.126849
  13 C :   -0.261083
  14 H :    0.136917
  15 C :    0.365311
  16 O :   -0.468088
  17 O :   -0.253342
  18 C :   -0.250694
  19 H :    0.142259
  20 H :    0.142261
  21 H :    0.153398
Sum of atomic charges:   -1.0000000

LOEWDIN ATOMIC CHARGES
----------------------
   0 C :   -0.206079
   1 C :   -0.130395
   2 C :   -0.122238
   3 H :    0.152851
   4 H :    0.152280
   5 C :   -0.178840
   6 C :   -0.167152
   7 H :    0.140436
   8 H :    0.141319
   9 C :   -0.413090
  10 O :   -0.131917
  11 C :   -0.099822
  12 H :    0.162460
  13 C :   -0.198626
  14 H :    0.148049
  15 C :   -0.510964
  16 O :    0.015455
  17 O :    0.228307
  18 C :   -0.328111
  19 H :    0.113894
  20 H :    0.113897
  21 H :    0.118289

  Mayer bond orders larger than 0.100000
B(  0-C ,  1-C ) :   1.2373 B(  0-C ,  2-C ) :   1.2311 B(  0-C , 11-C ) :   1.1231
B(  1-C ,  3-H ) :   0.9654 B(  1-C ,  5-C ) :   1.4746 B(  2-C ,  4-H ) :   0.9581
B(  2-C ,  6-C ) :   1.5084 B(  5-C ,  7-H ) :   0.9899 B(  5-C ,  9-C ) :   1.1806
B(  6-C ,  8-H ) :   0.9857 B(  6-C ,  9-C ) :   1.1547 B(  9-C , 10-O ) :   1.7318
B( 11-C , 12-H ) :   0.9542 B( 11-C , 13-C ) :   1.6006 B( 13-C , 14-H ) :   0.9444
B( 13-C , 15-C ) :   1.1513 B( 15-C , 16-O ) :   1.9007 B( 15-C , 17-O ) :   1.1917
B( 17-O , 18-C ) :   0.9095 B( 18-C , 19-H ) :   0.9696 B( 18-C , 20-H ) :   0.9696
B( 18-C , 21-H ) :   0.9641

Dispersion correction           -0.019941610
FINAL SINGLE POINT ENERGY      -611.852226082579

DIPOLE MOMENT
-------------
                                X             Y             Z
Electronic contribution:      0.00096       1.33465       3.89327
Nuclear contribution   :     -0.00078      -2.84355      -8.63296
                        -----------------------------------------
Total Dipole Moment    :      0.00019      -1.50890      -4.73968
                        -----------------------------------------
Magnitude (a.u.)       :      4.97407
Magnitude (Debye)      :     12.64308

Dispersion correction in the Hessian             ... done   (      0.3 sec)

VIBRATIONAL FREQUENCIES
-----------------------

Scaling factor for frequencies =  1.000000000  (already applied!)

   0:         0.00 cm**-1
   1:         0.00 cm**-1
   2:         0.00 cm**-1
   3:         0.00 cm**-1
   4:         0.00 cm**-1
   5:         0.00 cm**-1
   6:        45.98 cm**-1
   7:        66.33 cm**-1
   8:        77.56 cm**-1
   9:       102.60 cm**-1
  10:       157.67 cm**-1
  11:       192.02 cm**-1
  12:       206.23 cm**-1
  13:       224.42 cm**-1
  14:       268.06 cm**-1
  15:       344.16 cm**-1
  16:       363.95 cm**-1
  17:       433.50 cm**-1
  18:       452.26 cm**-1
  19:       513.07 cm**-1
  20:       514.27 cm**-1
  21:       527.69 cm**-1
  22:       642.19 cm**-1
  23:       725.27 cm**-1
  24:       735.46 cm**-1
  25:       775.91 cm**-1
  26:       806.14 cm**-1
  27:       822.31 cm**-1
  28:       851.63 cm**-1
  29:       855.67 cm**-1
  30:       866.17 cm**-1
  31:       967.37 cm**-1
  32:       968.42 cm**-1
  33:       976.59 cm**-1
  34:       996.38 cm**-1
  35:      1017.96 cm**-1
  36:      1075.06 cm**-1
  37:      1108.68 cm**-1
  38:      1158.14 cm**-1
  39:      1170.20 cm**-1
  40:      1187.45 cm**-1
  41:      1208.25 cm**-1
  42:      1232.88 cm**-1
  43:      1279.63 cm**-1
  44:      1315.16 cm**-1
  45:      1342.79 cm**-1
  46:      1368.33 cm**-1
  47:      1436.92 cm**-1
  48:      1463.75 cm**-1
  49:      1465.77 cm**-1
  50:      1478.08 cm**-1
  51:      1500.22 cm**-1
  52:      1544.43 cm**-1
  53:      1557.57 cm**-1
  54:      1605.01 cm**-1
  55:      1671.11 cm**-1
  56:      1719.11 cm**-1
  57:      3059.93 cm**-1
  58:      3136.02 cm**-1
  59:      3147.17 cm**-1
  60:      3156.63 cm**-1
  61:      3164.86 cm**-1
  62:      3171.47 cm**-1
  63:      3179.55 cm**-1
  64:      3184.15 cm**-1
  65:      3207.92 cm**-1

IR SPECTRUM
-----------

 Mode   freq       eps      Int      T**2         TX        TY        TZ
       cm**-1   L/(mol*cm) km/mol    a.u.
----------------------------------------------------------------------------
  6:     45.98   0.000044    0.22  0.000300  ( 0.017313 -0.000009  0.000029)
  7:     66.33   0.001194    6.04  0.005619  ( 0.074963  0.000028  0.000030)
  8:     77.56   0.000431    2.18  0.001734  ( 0.000034 -0.034966 -0.022617)
  9:    102.60   0.001971    9.96  0.005995  ( 0.077430  0.000003  0.000038)
 10:    157.67   0.000005    0.03  0.000011  (-0.003261  0.000021  0.000017)
 11:    192.02   0.000004    0.02  0.000007  (-0.002601  0.000008 -0.000025)
 12:    206.23   0.001770    8.95  0.002679  (-0.000013 -0.041948 -0.030319)
 13:    224.42   0.000686    3.47  0.000955  ( 0.030896 -0.000017  0.000007)
 14:    268.06   0.002394   12.10  0.002788  ( 0.000010  0.044892 -0.027790)
 15:    344.16   0.007625   38.54  0.006914  (-0.000007 -0.036865 -0.074534)
 16:    363.95   0.000537    2.71  0.000460  (-0.021459 -0.000012  0.000020)
 17:    433.50   0.000051    0.26  0.000036  (-0.006037 -0.000007 -0.000024)
 18:    452.26   0.004344   21.95  0.002997  (-0.000001  0.039790  0.037604)
 19:    513.07   0.006778   34.25  0.004123  (-0.064208  0.000083  0.000195)
 20:    514.27   0.009251   46.75  0.005614  ( 0.000164  0.031239  0.068100)
 21:    527.69   0.036786  185.90  0.021754  ( 0.000006 -0.016416 -0.146578)
 22:    642.19   0.000682    3.45  0.000332  (-0.000001  0.005734  0.017282)
 23:    725.27   0.004927   24.90  0.002120  (-0.000006  0.023598  0.039539)
 24:    735.46   0.000428    2.16  0.000181  ( 0.013469  0.000011  0.000051)
 25:    775.91   0.001291    6.52  0.000519  (-0.022786  0.000001  0.000019)
 26:    806.14   0.000108    0.55  0.000042  (-0.006461  0.000001 -0.000011)
 27:    822.31   0.003351   16.93  0.001272  (-0.000009  0.030633  0.018255)
 28:    851.63   0.028395  143.50  0.010405  ( 0.102004  0.000012  0.000065)
 29:    855.67   0.002748   13.88  0.001002  (-0.000087 -0.018515  0.025675)
 30:    866.17   0.006614   33.43  0.002383  ( 0.048815 -0.000007 -0.000017)
 31:    967.37   0.000102    0.52  0.000033  ( 0.005732  0.000133  0.000075)
 32:    968.42   0.003803   19.22  0.001225  (-0.000006  0.030942  0.016372)
 33:    976.59   0.000007    0.04  0.000002  ( 0.001507 -0.000002 -0.000005)
 34:    996.38   0.006648   33.60  0.002082  (-0.000003  0.004690  0.045389)
 35:   1017.96   0.007591   38.36  0.002327  ( 0.048239 -0.000026 -0.000054)
 36:   1075.06   0.000476    2.40  0.000138  (-0.000009  0.010475 -0.005325)
 37:   1108.68   0.009108   46.03  0.002564  (-0.000001  0.045193  0.022830)
 38:   1158.14   0.457952  2314.30  0.123397  ( 0.000003 -0.083772 -0.341143)
 39:   1170.20   0.000162    0.82  0.000043  ( 0.006565  0.000003 -0.000014)
 40:   1187.45   0.205441  1038.21  0.053990  ( 0.000006  0.089335  0.214498)
 41:   1208.25   0.029067  146.89  0.007507  ( 0.000007  0.033897  0.079739)
 42:   1232.88   0.102365  517.31  0.025910  (-0.000004  0.059674  0.149497)
 43:   1279.63   0.000108    0.54  0.000026  ( 0.000001 -0.003277  0.003938)
 44:   1315.16   0.000901    4.55  0.000214  ( 0.000005  0.014617  0.000110)
 45:   1342.79   0.027181  137.36  0.006317  ( 0.000007  0.024246 -0.075691)
 46:   1368.33   0.072148  364.61  0.016454  ( 0.000000 -0.053417 -0.116622)
 47:   1436.92   0.096038  485.34  0.020857  ( 0.000003  0.005694 -0.144308)
 48:   1463.75   0.002728   13.79  0.000582  (-0.024117 -0.000057 -0.000047)
 49:   1465.77   0.004879   24.66  0.001039  (-0.000057  0.023148  0.022427)
 50:   1478.08   0.009746   49.25  0.002058  ( 0.000005  0.023588  0.038745)
 51:   1500.22   0.132294  668.56  0.027519  ( 0.000009 -0.030103 -0.163134)
 52:   1544.43   0.253022  1278.67  0.051125  (-0.000009 -0.020143  0.225210)
 53:   1557.57   0.517870  2617.10  0.103757  ( 0.000013 -0.045968 -0.318816)
 54:   1605.01   0.287344  1452.12  0.055869  ( 0.000019 -0.013920 -0.235955)
 55:   1671.11   0.000740    3.74  0.000138  ( 0.000006 -0.011753  0.000070)
 56:   1719.11   0.083261  420.77  0.015114  (-0.000005 -0.109207  0.056461)
 57:   3059.93   0.012841   64.89  0.001310  (-0.000005 -0.003733 -0.035995)
 58:   3136.02   0.006451   32.60  0.000642  (-0.025337  0.000005  0.000010)
 59:   3147.17   0.001034    5.23  0.000103  (-0.000000  0.009141 -0.004360)
 60:   3156.63   0.004500   22.74  0.000445  (-0.000000  0.009734 -0.018710)
 61:   3164.86   0.003889   19.65  0.000383  ( 0.000000  0.001195 -0.019546)
 62:   3171.47   0.004228   21.37  0.000416  ( 0.000005  0.019970  0.004150)
 63:   3179.55   0.011767   59.46  0.001155  ( 0.000002 -0.032348 -0.010413)
 64:   3184.15   0.004395   22.21  0.000431  (-0.000001 -0.010141  0.018107)
 65:   3207.92   0.002233   11.29  0.000217  ( 0.000000 -0.011286  0.009480)

--------------------------
THERMOCHEMISTRY AT 298.15K
--------------------------

Temperature         ... 298.15 K
Pressure            ... 1.00 atm
Total Mass          ... 177.18 AMU

Throughout the following assumptions are being made:
  (1) The electronic state is orbitally nondegenerate
  (2) There are no thermally accessible electronically excited states
  (3) Hindered rotations indicated by low frequency modes are not
      treated as such but are treated as vibrations and this may
      cause some error
  (4) All equations used are the standard statistical mechanics
      equations for an ideal gas
  (5) All vibrations are strictly harmonic

freq.      45.98  E(vib)   ...       0.53
freq.      66.33  E(vib)   ...       0.50
freq.      77.56  E(vib)   ...       0.49
freq.     102.60  E(vib)   ...       0.46
freq.     157.67  E(vib)   ...       0.40
freq.     192.02  E(vib)   ...       0.36
freq.     206.23  E(vib)   ...       0.35
freq.     224.42  E(vib)   ...       0.33
freq.     268.06  E(vib)   ...       0.29
freq.     344.16  E(vib)   ...       0.23
freq.     363.95  E(vib)   ...       0.22
freq.     433.50  E(vib)   ...       0.17
freq.     452.26  E(vib)   ...       0.16
freq.     513.07  E(vib)   ...       0.13
freq.     514.27  E(vib)   ...       0.13
freq.     527.69  E(vib)   ...       0.13
freq.     642.19  E(vib)   ...       0.09
freq.     725.27  E(vib)   ...       0.06
freq.     735.46  E(vib)   ...       0.06
freq.     775.91  E(vib)   ...       0.05
freq.     806.14  E(vib)   ...       0.05
freq.     822.31  E(vib)   ...       0.05
freq.     851.63  E(vib)   ...       0.04
freq.     855.67  E(vib)   ...       0.04
freq.     866.17  E(vib)   ...       0.04
freq.     967.37  E(vib)   ...       0.03
freq.     968.42  E(vib)   ...       0.03
freq.     976.59  E(vib)   ...       0.03
freq.     996.38  E(vib)   ...       0.02
freq.    1017.96  E(vib)   ...       0.02
freq.    1075.06  E(vib)   ...       0.02
freq.    1108.68  E(vib)   ...       0.02
freq.    1158.14  E(vib)   ...       0.01
freq.    1170.20  E(vib)   ...       0.01
freq.    1187.45  E(vib)   ...       0.01
freq.    1208.25  E(vib)   ...       0.01
freq.    1232.88  E(vib)   ...       0.01
freq.    1279.63  E(vib)   ...       0.01
freq.    1315.16  E(vib)   ...       0.01
freq.    1342.79  E(vib)   ...       0.01
freq.    1368.33  E(vib)   ...       0.01
freq.    1436.92  E(vib)   ...       0.00
freq.    1463.75  E(vib)   ...       0.00
freq.    1465.77  E(vib)   ...       0.00
freq.    1478.08  E(vib)   ...       0.00
freq.    1500.22  E(vib)   ...       0.00
freq.    1544.43  E(vib)   ...       0.00
freq.    1557.57  E(vib)   ...       0.00
freq.    1605.01  E(vib)   ...       0.00
freq.    1671.11  E(vib)   ...       0.00
freq.    1719.11  E(vib)   ...       0.00
freq.    3059.93  E(vib)   ...       0.00
freq.    3136.02  E(vib)   ...       0.00
freq.    3147.17  E(vib)   ...       0.00
freq.    3156.63  E(vib)   ...       0.00
freq.    3164.86  E(vib)   ...       0.00
freq.    3171.47  E(vib)   ...       0.00
freq.    3179.55  E(vib)   ...       0.00
freq.    3184.15  E(vib)   ...       0.00
freq.    3207.92  E(vib)   ...       0.00

------------
INNER ENERGY
------------

The inner energy is: U= E(el) + E(ZPE) + E(vib) + E(rot) + E(trans)
    E(el)   - is the total energy from the electronic structure calculation
              = E(kin-el) + E(nuc-el) + E(el-el) + E(nuc-nuc)
    E(ZPE)  - the the zero temperature vibrational energy from the frequency calculation
    E(vib)  - the the finite temperature correction to E(ZPE) due to population
              of excited vibrational states
    E(rot)  - is the rotational thermal energy
    E(trans)- is the translational thermal energy

Summary of contributions to the inner energy U:
Electronic energy                ...   -611.85222608 Eh
Zero point energy                ...      0.16811390 Eh     105.49 kcal/mol
Thermal vibrational correction   ...      0.00896230 Eh       5.62 kcal/mol
Thermal rotational correction    ...      0.00141627 Eh       0.89 kcal/mol
Thermal translational correction ...      0.00141627 Eh       0.89 kcal/mol
-----------------------------------------------------------------------
Total thermal energy                   -611.67231734 Eh

Summary of corrections to the electronic energy:
(perhaps to be used in another calculation)
Total thermal correction                  0.01179485 Eh       7.40 kcal/mol
Non-thermal (ZPE) correction              0.16811390 Eh     105.49 kcal/mol
-----------------------------------------------------------------------
Total correction                          0.17990875 Eh     112.89 kcal/mol

--------
ENTHALPY
--------

The enthalpy is H = U + kB*T
                kB is Boltzmann's constant
Total free energy                 ...   -611.67231734 Eh
Thermal Enthalpy correction       ...      0.00094421 Eh       0.59 kcal/mol
-----------------------------------------------------------------------
Total Enthalpy                    ...   -611.67137313 Eh

Note: Only C1 symmetry has been detected, increase convergence thresholds
      if your molecule has a higher symmetry. Symmetry factor of 1.0 is
      used for the rotational entropy correction.

Note: Rotational entropy computed according to Herzberg
Infrared and Raman Spectra, Chapter V,1, Van Nostrand Reinhold, 1945
Point Group:  C1, Symmetry Number:   1
Rotational constants in cm-1:     0.114611     0.009199     0.008529

Vibrational entropy computed according to the QRRHO of S. Grimme
Chem.Eur.J. 2012 18 9955

-------
ENTROPY
-------

The entropy contributions are T*S = T*(S(el)+S(vib)+S(rot)+S(trans))
     S(el)   - electronic entropy
     S(vib)  - vibrational entropy
     S(rot)  - rotational entropy
     S(trans)- translational entropy
The entropies will be listed as multiplied by the temperature to get
units of energy

Electronic entropy                ...      0.00000000 Eh      0.00 kcal/mol
Vibrational entropy               ...      0.01560052 Eh      9.79 kcal/mol
Rotational entropy                ...      0.01499613 Eh      9.41 kcal/mol
Translational entropy             ...      0.01968134 Eh     12.35 kcal/mol
-----------------------------------------------------------------------
Final entropy term                ...      0.05027798 Eh     31.55 kcal/mol

In case the symmetry of your molecule has not been determined correctly
or in case you have a reason to use a different symmetry number we print
out the resulting rotational entropy values for sn=1,12 :
 --------------------------------------------------------
|  sn= 1 | S(rot)=       0.01499613 Eh      9.41 kcal/mol|
|  sn= 2 | S(rot)=       0.01434167 Eh      9.00 kcal/mol|
|  sn= 3 | S(rot)=       0.01395884 Eh      8.76 kcal/mol|

                             ****ORCA TERMINATED NORMALLY****
TOTAL RUN TIME: 0 days 0 hours 8 minutes 15 seconds 198 msec
