                         Program Version 5.0.4 -  RELEASE  -
|  1> %pal nprocs 24 end
|  2> %maxcore 3500
|  3> ! PBE0 D3BJ def2-TZVP TightSCF OPT FREQ TightOpt
|  4> ! CPCM(dmso)
|  5> %scf
|  6> MaxIter 800
|  7> end
|  8> %geom
|  9> MaxIter 800
| 10> MaxStep 0.2
| 11> end
| 12> *xyz 0 1
| 13>
| 14> C      -0.00000100     -0.57733100     -1.59279900
| 15> C      -0.00000000      0.65007100     -0.92857300
| 16> C      -0.00000200     -1.73714900     -0.80962500
| 17> H      -0.00000000      1.56563500     -1.51143500
| 18> H      -0.00000300     -2.71163100     -1.28506400
| 19> C       0.00000100      0.72953900      0.45416000
| 20> C      -0.00000100     -1.67450200      0.56924100
| 21> H       0.00000200      1.69416300      0.95198900
| 22> H      -0.00000200     -2.57981800      1.16563300
| 23> C       0.00000000     -0.43638000      1.21018600
| 24> O       0.00000100     -0.42708200      2.56350300
| 25> H       0.00000200      0.48335300      2.88199300
| 26> C      -0.00000200     -0.59297500     -3.05480900
| 27> H      -0.00000500      0.39354400     -3.51453500
| 28> C       0.00000200     -1.66029300     -3.85367100
| 29> H       0.00000600     -2.67643900     -3.47338100
| 30> H       0.00000200     -1.54241700     -4.93080600
| 31> *
| 32>
| 33>                          ****END OF INPUT****
 Total Charge           Charge          ....    0
 Multiplicity           Mult            ....    1
 Number of Electrons    NEL             ....   64
Dispersion correction           -0.015073003
FINAL SINGLE POINT ENERGY      -384.585888053943
Dispersion correction            ... done
Dispersion correction           -0.015073011
FINAL SINGLE POINT ENERGY      -384.585888650137
Dispersion correction            ... done
                    ***********************HURRAY********************

CARTESIAN COORDINATES (ANGSTROEM)
---------------------------------
  C     -0.000002   -0.576699   -1.593112
  C     -0.000000    0.650505   -0.928429
  C     -0.000003   -1.737084   -0.810279
  H     -0.000000    1.566245   -1.510897
  H     -0.000004   -2.711281   -1.286017
  C      0.000001    0.729574    0.454583
  C     -0.000002   -1.674569    0.568748
  H      0.000002    1.694368    0.951913
  H     -0.000002   -2.579571    1.165522
  C      0.000000   -0.436670    1.210345
  O      0.000002   -0.427746    2.563680
  H      0.000003    0.482749    2.881832
  C     -0.000002   -0.592722   -3.055285
  H     -0.000006    0.393490   -3.515465
  C      0.000003   -1.660620   -3.853353
  H      0.000008   -2.676009   -3.471284
  H      0.000002   -1.543672   -4.930496

 Multiplicity           Mult            ....    1
 Number of Electrons    NEL             ....   64
 Basis Dimension        Dim             ....  327

ORBITAL ENERGIES
----------------

  NO   OCC          E(Eh)            E(eV)
   0   2.0000     -19.240352      -523.5566
   1   2.0000     -10.291220      -280.0383
   2   2.0000     -10.232583      -278.4427
   3   2.0000     -10.230710      -278.3918
   4   2.0000     -10.230473      -278.3853
   5   2.0000     -10.229139      -278.3490
   6   2.0000     -10.226018      -278.2641
   7   2.0000     -10.225439      -278.2483
   8   2.0000     -10.213625      -277.9269
   9   2.0000      -1.098757       -29.8987
  10   2.0000      -0.890534       -24.2327
  11   2.0000      -0.813908       -22.1476
  12   2.0000      -0.778642       -21.1879
  13   2.0000      -0.745713       -20.2919
  14   2.0000      -0.659734       -17.9523
  15   2.0000      -0.629755       -17.1365
  16   2.0000      -0.585717       -15.9382
  17   2.0000      -0.566478       -15.4147
  18   2.0000      -0.502919       -13.6851
  19   2.0000      -0.500787       -13.6271
  20   2.0000      -0.460510       -12.5311
  21   2.0000      -0.439366       -11.9558
  22   2.0000      -0.438302       -11.9268
  23   2.0000      -0.434938       -11.8353
  24   2.0000      -0.420239       -11.4353
  25   2.0000      -0.386904       -10.5282
  26   2.0000      -0.377242       -10.2653
  27   2.0000      -0.363256        -9.8847
  28   2.0000      -0.347390        -9.4530
  29   2.0000      -0.302939        -8.2434
  30   2.0000      -0.275463        -7.4957
  31   2.0000      -0.225771        -6.1435
  32   0.0000      -0.032782        -0.8920
  33   0.0000      -0.011449        -0.3116
  34   0.0000       0.056894         1.5482
  35   0.0000       0.062518         1.7012
  36   0.0000       0.074581         2.0294

MULLIKEN ATOMIC CHARGES
-----------------------
   0 C :    0.226736
   1 C :   -0.223856
   2 C :   -0.230380
   3 H :    0.151143
   4 H :    0.142303
   5 C :   -0.237435
   6 C :   -0.228640
   7 H :    0.158317
   8 H :    0.144882
   9 C :    0.260798
  10 O :   -0.428054
  11 H :    0.369005
  12 C :   -0.233463
  13 H :    0.143744
  14 C :   -0.324027
  15 H :    0.150510
  16 H :    0.158416
Sum of atomic charges:   -0.0000000

LOEWDIN ATOMIC CHARGES
----------------------
   0 C :   -0.170875
   1 C :   -0.108233
   2 C :   -0.099543
   3 H :    0.158631
   4 H :    0.157606
   5 C :   -0.142889
   6 C :   -0.130469
   7 H :    0.158097
   8 H :    0.156825
   9 C :   -0.290250
  10 O :    0.083855
  11 H :    0.208924
  12 C :   -0.175239
  13 H :    0.156911
  14 C :   -0.218288
  15 H :    0.126336
  16 H :    0.128603

  Mayer bond orders larger than 0.100000
B(  0-C ,  1-C ) :   1.3317 B(  0-C ,  2-C ) :   1.2952 B(  0-C , 12-C ) :   1.0008
B(  1-C ,  3-H ) :   0.9635 B(  1-C ,  5-C ) :   1.3921 B(  2-C ,  4-H ) :   0.9761
B(  2-C ,  6-C ) :   1.4892 B(  5-C ,  7-H ) :   0.9618 B(  5-C ,  9-C ) :   1.3595
B(  6-C ,  8-H ) :   0.9786 B(  6-C ,  9-C ) :   1.3459 B(  9-C , 10-O ) :   1.1391
B( 10-O , 11-H ) :   0.8503 B( 12-C , 13-H ) :   0.9628 B( 12-C , 14-C ) :   1.8889
B( 14-C , 15-H ) :   0.9466 B( 14-C , 16-H ) :   0.9573

Dispersion correction           -0.015073241
FINAL SINGLE POINT ENERGY      -384.585888981462

DIPOLE MOMENT
-------------
                                X             Y             Z
Electronic contribution:     -0.00000       1.08913       5.32547
Nuclear contribution   :      0.00000      -0.29737      -5.01144
                        -----------------------------------------
Total Dipole Moment    :      0.00000       0.79176       0.31403
                        -----------------------------------------
Magnitude (a.u.)       :      0.85176
Magnitude (Debye)      :      2.16500

Dispersion correction in the Hessian             ... done   (      0.3 sec)

VIBRATIONAL FREQUENCIES
-----------------------

Scaling factor for frequencies =  1.000000000  (already applied!)

   0:         0.00 cm**-1
   1:         0.00 cm**-1
   2:         0.00 cm**-1
   3:         0.00 cm**-1
   4:         0.00 cm**-1
   5:         0.00 cm**-1
   6:        47.12 cm**-1
   7:       148.82 cm**-1
   8:       212.52 cm**-1
   9:       321.17 cm**-1
  10:       377.56 cm**-1
  11:       395.37 cm**-1
  12:       421.67 cm**-1
  13:       433.84 cm**-1
  14:       504.59 cm**-1
  15:       534.25 cm**-1
  16:       653.72 cm**-1
  17:       660.39 cm**-1
  18:       744.48 cm**-1
  19:       770.43 cm**-1
  20:       828.99 cm**-1
  21:       862.34 cm**-1
  22:       863.36 cm**-1
  23:       928.00 cm**-1
  24:       961.98 cm**-1
  25:       975.15 cm**-1
  26:      1029.76 cm**-1
  27:      1034.09 cm**-1
  28:      1042.38 cm**-1
  29:      1132.02 cm**-1
  30:      1187.30 cm**-1
  31:      1196.96 cm**-1
  32:      1239.48 cm**-1
  33:      1308.99 cm**-1
  34:      1318.44 cm**-1
  35:      1350.17 cm**-1
  36:      1386.02 cm**-1
  37:      1445.63 cm**-1
  38:      1479.64 cm**-1
  39:      1553.70 cm**-1
  40:      1645.81 cm**-1
  41:      1671.00 cm**-1
  42:      1698.36 cm**-1
  43:      3149.60 cm**-1
  44:      3157.72 cm**-1
  45:      3181.52 cm**-1
  46:      3194.48 cm**-1
  47:      3196.18 cm**-1
  48:      3209.79 cm**-1
  49:      3243.40 cm**-1
  50:      3817.27 cm**-1

IR SPECTRUM
-----------

 Mode   freq       eps      Int      T**2         TX        TY        TZ
       cm**-1   L/(mol*cm) km/mol    a.u.
----------------------------------------------------------------------------
  6:     47.12   0.000047    0.24  0.000312  ( 0.017672  0.000001  0.000004)
  7:    148.82   0.000274    1.39  0.000575  ( 0.023990 -0.000001  0.000002)
  8:    212.52   0.000036    0.18  0.000053  ( 0.000000  0.006963 -0.002195)
  9:    321.17   0.000480    2.43  0.000467  ( 0.021607  0.000002  0.000005)
 10:    377.56   0.036454  184.22  0.030131  ( 0.173582  0.000000  0.000001)
 11:    395.37   0.001143    5.77  0.000902  ( 0.000000 -0.000875 -0.030017)
 12:    421.67   0.000009    0.04  0.000007  ( 0.002563 -0.000003 -0.000006)
 13:    433.84   0.004565   23.07  0.003284  ( 0.000000 -0.009403 -0.056528)
 14:    504.59   0.006243   31.55  0.003861  (-0.062137 -0.000002 -0.000000)
 15:    534.25   0.002323   11.74  0.001357  (-0.000001 -0.004478 -0.036562)
 16:    653.72   0.000063    0.32  0.000030  ( 0.000000  0.005152 -0.001857)
 17:    660.39   0.000305    1.54  0.000144  ( 0.012009  0.000000  0.000004)
 18:    744.48   0.002867   14.49  0.001202  ( 0.000000 -0.001359  0.034637)
 19:    770.43   0.000073    0.37  0.000030  (-0.005439 -0.000000  0.000001)
 20:    828.99   0.000710    3.59  0.000267  ( 0.016354 -0.000001 -0.000001)
 21:    862.34   0.021962  110.99  0.007948  ( 0.089149 -0.000002  0.000010)
 22:    863.36   0.004735   23.93  0.001711  (-0.000030  0.003782  0.041196)
 23:    928.00   0.015891   80.31  0.005344  (-0.073102 -0.000002 -0.000000)
 24:    961.98   0.000009    0.04  0.000003  (-0.001682 -0.000000 -0.000003)
 25:    975.15   0.000000    0.00  0.000000  (-0.000046 -0.000000 -0.000001)
 26:   1029.76   0.000343    1.73  0.000104  (-0.000001 -0.001938 -0.010014)
 27:   1034.09   0.005334   26.96  0.001610  ( 0.040122  0.000001 -0.000000)
 28:   1042.38   0.000291    1.47  0.000087  (-0.000000  0.000010  0.009332)
 29:   1132.02   0.005095   25.75  0.001405  (-0.000000 -0.034192 -0.015346)
 30:   1187.30   0.029251  147.82  0.007688  (-0.000000  0.007900  0.087325)
 31:   1196.96   0.043459  219.62  0.011330  (-0.000000  0.006618 -0.106238)
 32:   1239.48   0.002173   10.98  0.000547  ( 0.000000 -0.009413 -0.021413)
 33:   1308.99   0.048244  243.81  0.011501  (-0.000000 -0.012151 -0.106554)
 34:   1318.44   0.000390    1.97  0.000092  (-0.000000 -0.006287 -0.007268)
 35:   1350.17   0.005111   25.83  0.001181  (-0.000000 -0.013320  0.031683)
 36:   1386.02   0.003959   20.01  0.000891  ( 0.000000  0.009593  0.028271)
 37:   1445.63   0.001692    8.55  0.000365  (-0.000000  0.012661 -0.014314)
 38:   1479.64   0.000529    2.67  0.000112  ( 0.000000 -0.002308  0.010305)
 39:   1553.70   0.048140  243.28  0.009669  (-0.000000 -0.010254 -0.097795)
 40:   1645.81   0.009220   46.60  0.001748  (-0.000000 -0.013163  0.039687)
 41:   1671.00   0.035706  180.45  0.006668  ( 0.000000  0.013130  0.080597)
 42:   1698.36   0.008937   45.16  0.001642  (-0.000000  0.026454  0.030697)
 43:   3149.60   0.003927   19.84  0.000389  ( 0.000000 -0.015615  0.012051)
 44:   3157.72   0.000520    2.63  0.000051  (-0.000000  0.001889  0.006914)
 45:   3181.52   0.003040   15.36  0.000298  (-0.000000 -0.003296  0.016949)
 46:   3194.48   0.001564    7.91  0.000153  ( 0.000000  0.005995  0.010811)
 47:   3196.18   0.001834    9.27  0.000179  (-0.000000 -0.013021 -0.003091)
 48:   3209.79   0.001156    5.84  0.000112  ( 0.000000  0.008679 -0.006086)
 49:   3243.40   0.002018   10.20  0.000194  (-0.000000  0.009180 -0.010484)
 50:   3817.27   0.045599  230.44  0.003728  ( 0.000000  0.040078  0.046060)

--------------------------
THERMOCHEMISTRY AT 298.15K
--------------------------

Temperature         ... 298.15 K
Pressure            ... 1.00 atm
Total Mass          ... 120.15 AMU

Throughout the following assumptions are being made:
  (1) The electronic state is orbitally nondegenerate
  (2) There are no thermally accessible electronically excited states
  (3) Hindered rotations indicated by low frequency modes are not
      treated as such but are treated as vibrations and this may
      cause some error
  (4) All equations used are the standard statistical mechanics
      equations for an ideal gas
  (5) All vibrations are strictly harmonic

freq.      47.12  E(vib)   ...       0.53
freq.     148.82  E(vib)   ...       0.41
freq.     212.52  E(vib)   ...       0.34
freq.     321.17  E(vib)   ...       0.25
freq.     377.56  E(vib)   ...       0.21
freq.     395.37  E(vib)   ...       0.20
freq.     421.67  E(vib)   ...       0.18
freq.     433.84  E(vib)   ...       0.17
freq.     504.59  E(vib)   ...       0.14
freq.     534.25  E(vib)   ...       0.13
freq.     653.72  E(vib)   ...       0.08
freq.     660.39  E(vib)   ...       0.08
freq.     744.48  E(vib)   ...       0.06
freq.     770.43  E(vib)   ...       0.05
freq.     828.99  E(vib)   ...       0.04
freq.     862.34  E(vib)   ...       0.04
freq.     863.36  E(vib)   ...       0.04
freq.     928.00  E(vib)   ...       0.03
freq.     961.98  E(vib)   ...       0.03
freq.     975.15  E(vib)   ...       0.03
freq.    1029.76  E(vib)   ...       0.02
freq.    1034.09  E(vib)   ...       0.02
freq.    1042.38  E(vib)   ...       0.02
freq.    1132.02  E(vib)   ...       0.01
freq.    1187.30  E(vib)   ...       0.01
freq.    1196.96  E(vib)   ...       0.01
freq.    1239.48  E(vib)   ...       0.01
freq.    1308.99  E(vib)   ...       0.01
freq.    1318.44  E(vib)   ...       0.01
freq.    1350.17  E(vib)   ...       0.01
freq.    1386.02  E(vib)   ...       0.00
freq.    1445.63  E(vib)   ...       0.00
freq.    1479.64  E(vib)   ...       0.00
freq.    1553.70  E(vib)   ...       0.00
freq.    1645.81  E(vib)   ...       0.00
freq.    1671.00  E(vib)   ...       0.00
freq.    1698.36  E(vib)   ...       0.00
freq.    3149.60  E(vib)   ...       0.00
freq.    3157.72  E(vib)   ...       0.00
freq.    3181.52  E(vib)   ...       0.00
freq.    3194.48  E(vib)   ...       0.00
freq.    3196.18  E(vib)   ...       0.00
freq.    3209.79  E(vib)   ...       0.00
freq.    3243.40  E(vib)   ...       0.00
freq.    3817.27  E(vib)   ...       0.00

------------
INNER ENERGY
------------

The inner energy is: U= E(el) + E(ZPE) + E(vib) + E(rot) + E(trans)
    E(el)   - is the total energy from the electronic structure calculation
              = E(kin-el) + E(nuc-el) + E(el-el) + E(nuc-nuc)
    E(ZPE)  - the the zero temperature vibrational energy from the frequency calculation
    E(vib)  - the the finite temperature correction to E(ZPE) due to population
              of excited vibrational states
    E(rot)  - is the rotational thermal energy
    E(trans)- is the translational thermal energy

Summary of contributions to the inner energy U:
Electronic energy                ...   -384.58588898 Eh
Zero point energy                ...      0.13786437 Eh      86.51 kcal/mol
Thermal vibrational correction   ...      0.00505561 Eh       3.17 kcal/mol
Thermal rotational correction    ...      0.00141627 Eh       0.89 kcal/mol
Thermal translational correction ...      0.00141627 Eh       0.89 kcal/mol
-----------------------------------------------------------------------
Total thermal energy                   -384.44013645 Eh

Summary of corrections to the electronic energy:
(perhaps to be used in another calculation)
Total thermal correction                  0.00788816 Eh       4.95 kcal/mol
Non-thermal (ZPE) correction              0.13786437 Eh      86.51 kcal/mol
-----------------------------------------------------------------------
Total correction                          0.14575253 Eh      91.46 kcal/mol

--------
ENTHALPY
--------

The enthalpy is H = U + kB*T
                kB is Boltzmann's constant
Total free energy                 ...   -384.44013645 Eh
Thermal Enthalpy correction       ...      0.00094421 Eh       0.59 kcal/mol
-----------------------------------------------------------------------
Total Enthalpy                    ...   -384.43919224 Eh

Note: Rotational entropy computed according to Herzberg
Infrared and Raman Spectra, Chapter V,1, Van Nostrand Reinhold, 1945
Point Group:  Cs, Symmetry Number:   1
Rotational constants in cm-1:     0.169759     0.033241     0.027798

Vibrational entropy computed according to the QRRHO of S. Grimme
Chem.Eur.J. 2012 18 9955

-------
ENTROPY
-------

The entropy contributions are T*S = T*(S(el)+S(vib)+S(rot)+S(trans))
     S(el)   - electronic entropy
     S(vib)  - vibrational entropy
     S(rot)  - rotational entropy
     S(trans)- translational entropy
The entropies will be listed as multiplied by the temperature to get
units of energy

Electronic entropy                ...      0.00000000 Eh      0.00 kcal/mol
Vibrational entropy               ...      0.00820527 Eh      5.15 kcal/mol
Rotational entropy                ...      0.01364638 Eh      8.56 kcal/mol
Translational entropy             ...      0.01913124 Eh     12.01 kcal/mol
-----------------------------------------------------------------------
Final entropy term                ...      0.04098289 Eh     25.72 kcal/mol

In case the symmetry of your molecule has not been determined correctly
or in case you have a reason to use a different symmetry number we print
out the resulting rotational entropy values for sn=1,12 :
 --------------------------------------------------------
|  sn= 1 | S(rot)=       0.01364638 Eh      8.56 kcal/mol|
|  sn= 2 | S(rot)=       0.01299192 Eh      8.15 kcal/mol|
|  sn= 3 | S(rot)=       0.01260909 Eh      7.91 kcal/mol|
|  sn= 4 | S(rot)=       0.01233747 Eh      7.74 kcal/mol|
|  sn= 5 | S(rot)=       0.01212678 Eh      7.61 kcal/mol|
|  sn= 6 | S(rot)=       0.01195463 Eh      7.50 kcal/mol|
|  sn= 7 | S(rot)=       0.01180909 Eh      7.41 kcal/mol|
|  sn= 8 | S(rot)=       0.01168301 Eh      7.33 kcal/mol|
|  sn= 9 | S(rot)=       0.01157180 Eh      7.26 kcal/mol|
|  sn=10 | S(rot)=       0.01147232 Eh      7.20 kcal/mol|
|  sn=11 | S(rot)=       0.01138233 Eh      7.14 kcal/mol|
|  sn=12 | S(rot)=       0.01130018 Eh      7.09 kcal/mol|
 --------------------------------------------------------

-------------------
GIBBS FREE ENERGY
-------------------

The Gibbs free energy is G = H - T*S

Total enthalpy                    ...   -384.43919224 Eh
Total entropy correction          ...     -0.04098289 Eh    -25.72 kcal/mol

                             ****ORCA TERMINATED NORMALLY****
TOTAL RUN TIME: 0 days 0 hours 4 minutes 23 seconds 618 msec
