                         Program Version 5.0.4 -  RELEASE  -
|  1> %pal nprocs 24 end
|  2> %maxcore 3500
|  3> ! PBE0 D3BJ def2-TZVP TightSCF OPT FREQ TightOpt
|  4> ! CPCM(dmso)
|  5> %scf
|  6> MaxIter 800
|  7> end
|  8> %geom
|  9> MaxIter 800
| 10> MaxStep 0.2
| 11> end
| 12> *xyz -1 1
| 13>
| 14> C      -0.00000000     -0.58515500     -1.60452500
| 15> C      -0.00000000      0.64112100     -0.92369600
| 16> C      -0.00000000     -1.74337800     -0.80860100
| 17> H      -0.00000000      1.55741100     -1.51063500
| 18> H      -0.00000100     -2.71854800     -1.28840300
| 19> C       0.00000000      0.72290600      0.45278200
| 20> C       0.00000000     -1.68234000      0.56542300
| 21> H       0.00000000      1.69323400      0.94207300
| 22> H      -0.00000000     -2.59918100      1.14925700
| 23> C       0.00000000     -0.44057200      1.28309100
| 24> O       0.00000000     -0.38503000      2.55484000
| 25> C      -0.00000000     -0.60307200     -3.05591300
| 26> H      -0.00000000      0.38682700     -3.51257600
| 27> C       0.00000000     -1.66081800     -3.87843800
| 28> H       0.00000100     -2.68313200     -3.51366200
| 29> H       0.00000000     -1.52547700     -4.95361100
| 30> *
| 31>
| 32>                          ****END OF INPUT****
 Total Charge           Charge          ....   -1
 Multiplicity           Mult            ....    1
 Number of Electrons    NEL             ....   64
Dispersion correction           -0.014467507
FINAL SINGLE POINT ENERGY      -384.102951096893
Dispersion correction            ... done
Dispersion correction           -0.014466762
FINAL SINGLE POINT ENERGY      -384.102951497089
Dispersion correction            ... done
                    ***********************HURRAY********************

CARTESIAN COORDINATES (ANGSTROEM)
---------------------------------
  C     -0.000000   -0.584860   -1.604833
  C     -0.000000    0.641349   -0.923512
  C     -0.000000   -1.743413   -0.808868
  H     -0.000000    1.557792   -1.510076
  H     -0.000000   -2.718488   -1.288611
  C      0.000000    0.722975    0.453228
  C      0.000000   -1.682438    0.565340
  H      0.000000    1.693448    0.942028
  H     -0.000000   -2.598926    1.149579
  C      0.000000   -0.440699    1.283342
  O     -0.000000   -0.385617    2.555293
  C      0.000000   -0.603059   -3.056391
  H     -0.000000    0.386490   -3.513581
  C      0.000000   -1.661043   -3.878722
  H      0.000000   -2.682921   -3.512982
  H      0.000000   -1.525794   -4.953830

 Multiplicity           Mult            ....    1
 Number of Electrons    NEL             ....   64
 Basis Dimension        Dim             ....  321

ORBITAL ENERGIES
----------------

  NO   OCC          E(Eh)            E(eV)
   0   2.0000     -19.117523      -520.2142
   1   2.0000     -10.247161      -278.8394
   2   2.0000     -10.216476      -278.0045
   3   2.0000     -10.207367      -277.7566
   4   2.0000     -10.207308      -277.7550
   5   2.0000     -10.200953      -277.5821
   6   2.0000     -10.195525      -277.4343
   7   2.0000     -10.190815      -277.3062
   8   2.0000     -10.187620      -277.2192
   9   2.0000      -0.983884       -26.7729
  10   2.0000      -0.854624       -23.2555
  11   2.0000      -0.783452       -21.3188
  12   2.0000      -0.747003       -20.3270
  13   2.0000      -0.705047       -19.1853
  14   2.0000      -0.611399       -16.6370
  15   2.0000      -0.593721       -16.1560
  16   2.0000      -0.554587       -15.0911
  17   2.0000      -0.493322       -13.4240
  18   2.0000      -0.466105       -12.6834
  19   2.0000      -0.442386       -12.0379
  20   2.0000      -0.425490       -11.5782
  21   2.0000      -0.407208       -11.0807
  22   2.0000      -0.401938       -10.9373
  23   2.0000      -0.388886       -10.5821
  24   2.0000      -0.367861       -10.0100
  25   2.0000      -0.343869        -9.3571
  26   2.0000      -0.336643        -9.1605
  27   2.0000      -0.328776        -8.9464
  28   2.0000      -0.268281        -7.3003
  29   2.0000      -0.251472        -6.8429
  30   2.0000      -0.222883        -6.0650
  31   2.0000      -0.174153        -4.7389
  32   0.0000      -0.008167        -0.2222
  33   0.0000       0.015279         0.4158
  34   0.0000       0.082708         2.2506
  35   0.0000       0.083881         2.2825
  36   0.0000       0.089368         2.4318

MULLIKEN ATOMIC CHARGES
-----------------------
   0 C :    0.189497
   1 C :   -0.235468
   2 C :   -0.260486
   3 H :    0.128725
   4 H :    0.126382
   5 C :   -0.297774
   6 C :   -0.270612
   7 H :    0.100315
   8 H :    0.102337
   9 C :    0.249412
  10 O :   -0.643726
  11 C :   -0.214746
  12 H :    0.129463
  13 C :   -0.390307
  14 H :    0.138881
  15 H :    0.148106
Sum of atomic charges:   -1.0000000

LOEWDIN ATOMIC CHARGES
----------------------
   0 C :   -0.216238
   1 C :   -0.149901
   2 C :   -0.140281
   3 H :    0.148470
   4 H :    0.148372
   5 C :   -0.192901
   6 C :   -0.181890
   7 H :    0.136167
   8 H :    0.137029
   9 C :   -0.430654
  10 O :   -0.178684
  11 C :   -0.194917
  12 H :    0.152231
  13 C :   -0.276889
  14 H :    0.119126
  15 H :    0.120959

  Mayer bond orders larger than 0.100000
B(  0-C ,  1-C ) :   1.2824 B(  0-C ,  2-C ) :   1.2567 B(  0-C , 11-C ) :   1.0401
B(  1-C ,  3-H ) :   0.9652 B(  1-C ,  5-C ) :   1.4242 B(  2-C ,  4-H ) :   0.9632
B(  2-C ,  6-C ) :   1.4720 B(  5-C ,  7-H ) :   0.9921 B(  5-C ,  9-C ) :   1.2094
B(  6-C ,  8-H ) :   0.9861 B(  6-C ,  9-C ) :   1.1819 B(  9-C , 10-O ) :   1.7021
B( 11-C , 12-H ) :   0.9649 B( 11-C , 13-C ) :   1.8392 B( 13-C , 14-H ) :   0.9528
B( 13-C , 15-H ) :   0.9645

Dispersion correction           -0.014466545
FINAL SINGLE POINT ENERGY      -384.102951642369

DIPOLE MOMENT
-------------
                                X             Y             Z
Electronic contribution:      0.00000       1.11525       4.84046
Nuclear contribution   :     -0.00000      -1.31057      -8.12857
                        -----------------------------------------
Total Dipole Moment    :      0.00000      -0.19532      -3.28811
                        -----------------------------------------
Magnitude (a.u.)       :      3.29391
Magnitude (Debye)      :      8.37246

Dispersion correction in the Hessian             ... done   (      0.2 sec)

VIBRATIONAL FREQUENCIES
-----------------------

Scaling factor for frequencies =  1.000000000  (already applied!)

   0:         0.00 cm**-1
   1:         0.00 cm**-1
   2:         0.00 cm**-1
   3:         0.00 cm**-1
   4:         0.00 cm**-1
   5:         0.00 cm**-1
   6:        73.58 cm**-1
   7:       152.62 cm**-1
   8:       208.42 cm**-1
   9:       293.00 cm**-1
  10:       407.72 cm**-1
  11:       426.66 cm**-1
  12:       453.14 cm**-1
  13:       501.63 cm**-1
  14:       530.63 cm**-1
  15:       645.66 cm**-1
  16:       665.28 cm**-1
  17:       753.37 cm**-1
  18:       770.48 cm**-1
  19:       808.24 cm**-1
  20:       850.93 cm**-1
  21:       857.32 cm**-1
  22:       866.71 cm**-1
  23:       956.89 cm**-1
  24:       964.16 cm**-1
  25:       998.53 cm**-1
  26:      1028.13 cm**-1
  27:      1036.63 cm**-1
  28:      1112.45 cm**-1
  29:      1167.94 cm**-1
  30:      1239.75 cm**-1
  31:      1275.38 cm**-1
  32:      1311.24 cm**-1
  33:      1338.76 cm**-1
  34:      1409.86 cm**-1
  35:      1441.11 cm**-1
  36:      1476.49 cm**-1
  37:      1549.82 cm**-1
  38:      1559.30 cm**-1
  39:      1639.56 cm**-1
  40:      1673.56 cm**-1
  41:      3127.96 cm**-1
  42:      3145.83 cm**-1
  43:      3149.30 cm**-1
  44:      3154.90 cm**-1
  45:      3169.29 cm**-1
  46:      3174.78 cm**-1
  47:      3235.31 cm**-1

IR SPECTRUM
-----------

 Mode   freq       eps      Int      T**2         TX        TY        TZ
       cm**-1   L/(mol*cm) km/mol    a.u.
----------------------------------------------------------------------------
  6:     73.58   0.000622    3.14  0.002638  ( 0.051358 -0.000003  0.000005)
  7:    152.62   0.000172    0.87  0.000352  (-0.018755 -0.000006  0.000005)
  8:    208.42   0.000349    1.76  0.000523  ( 0.000000  0.019992 -0.011083)
  9:    293.00   0.002197   11.10  0.002340  ( 0.048368  0.000002 -0.000006)
 10:    407.72   0.002138   10.81  0.001637  (-0.000001  0.010298 -0.039124)
 11:    426.66   0.000147    0.74  0.000107  (-0.010352 -0.000006 -0.000011)
 12:    453.14   0.005756   29.09  0.003964  ( 0.000000  0.036907  0.051008)
 13:    501.63   0.007358   37.18  0.004577  (-0.067656 -0.000003 -0.000002)
 14:    530.63   0.012071   61.00  0.007099  (-0.000001  0.007763  0.083897)
 15:    645.66   0.000587    2.97  0.000284  (-0.000000 -0.007118 -0.015272)
 16:    665.28   0.000076    0.38  0.000036  (-0.005966 -0.000001 -0.000001)
 17:    753.37   0.003705   18.72  0.001535  ( 0.000001  0.001365 -0.039151)
 18:    770.48   0.001183    5.98  0.000479  (-0.021892 -0.000000 -0.000002)
 19:    808.24   0.000184    0.93  0.000071  (-0.008421  0.000002  0.000001)
 20:    850.93   0.000015    0.07  0.000005  (-0.000008 -0.000707  0.002221)
 21:    857.32   0.035035  177.05  0.012753  ( 0.112928 -0.000004 -0.000002)
 22:    866.71   0.007914   39.99  0.002849  (-0.053381 -0.000001 -0.000003)
 23:    956.89   0.000140    0.71  0.000046  ( 0.006757  0.000001  0.000003)
 24:    964.16   0.000014    0.07  0.000005  ( 0.002157 -0.000001 -0.000004)
 25:    998.53   0.005185   26.20  0.001621  ( 0.000000  0.002787  0.040159)
 26:   1028.13   0.005372   27.15  0.001631  (-0.040380  0.000000  0.000001)
 27:   1036.63   0.001444    7.30  0.000435  ( 0.000000 -0.001586 -0.020792)
 28:   1112.45   0.006480   32.75  0.001818  (-0.000000  0.042215  0.005961)
 29:   1167.94   0.041656  210.51  0.011130  (-0.000000  0.013324  0.104654)
 30:   1239.75   0.017478   88.33  0.004400  ( 0.000000  0.025755  0.061125)
 31:   1275.38   0.000843    4.26  0.000206  ( 0.000000 -0.005589  0.013226)
 32:   1311.24   0.001152    5.82  0.000274  ( 0.000000  0.014273 -0.008398)
 33:   1338.76   0.020265  102.41  0.004724  (-0.000000 -0.019589  0.065879)
 34:   1409.86   0.070150  354.51  0.015527  ( 0.000000  0.009446  0.124250)
 35:   1441.11   0.047726  241.19  0.010335  ( 0.000000 -0.005036 -0.101536)
 36:   1476.49   0.016934   85.58  0.003579  ( 0.000000 -0.037485 -0.046625)
 37:   1549.82   0.202522  1023.46  0.040779  (-0.000000 -0.004762 -0.201881)
 38:   1559.30   0.013596   68.71  0.002721  ( 0.000000  0.041836  0.031156)
 39:   1639.56   0.195794  989.46  0.037266  ( 0.000000 -0.037054 -0.189455)
 40:   1673.56   0.010904   55.10  0.002033  ( 0.000000 -0.034696 -0.028799)
 41:   3127.96   0.006676   33.74  0.000666  ( 0.000000  0.019145 -0.017305)
 42:   3145.83   0.007855   39.70  0.000779  (-0.000000 -0.010695  0.025785)
 43:   3149.30   0.000854    4.32  0.000085  (-0.000000  0.006761 -0.006238)
 44:   3154.90   0.005073   25.64  0.000502  ( 0.000000 -0.000235 -0.022399)
 45:   3169.29   0.016399   82.87  0.001615  (-0.000000  0.039060  0.009432)
 46:   3174.78   0.003942   19.92  0.000388  ( 0.000000 -0.014971  0.012782)
 47:   3235.31   0.003706   18.73  0.000357  ( 0.000000 -0.012273  0.014382)

--------------------------
THERMOCHEMISTRY AT 298.15K
--------------------------

Temperature         ... 298.15 K
Pressure            ... 1.00 atm
Total Mass          ... 119.14 AMU

Throughout the following assumptions are being made:
  (1) The electronic state is orbitally nondegenerate
  (2) There are no thermally accessible electronically excited states
  (3) Hindered rotations indicated by low frequency modes are not
      treated as such but are treated as vibrations and this may
      cause some error
  (4) All equations used are the standard statistical mechanics
      equations for an ideal gas
  (5) All vibrations are strictly harmonic

freq.      73.58  E(vib)   ...       0.49
freq.     152.62  E(vib)   ...       0.40
freq.     208.42  E(vib)   ...       0.34
freq.     293.00  E(vib)   ...       0.27
freq.     407.72  E(vib)   ...       0.19
freq.     426.66  E(vib)   ...       0.18
freq.     453.14  E(vib)   ...       0.16
freq.     501.63  E(vib)   ...       0.14
freq.     530.63  E(vib)   ...       0.13
freq.     645.66  E(vib)   ...       0.09
freq.     665.28  E(vib)   ...       0.08
freq.     753.37  E(vib)   ...       0.06
freq.     770.48  E(vib)   ...       0.05
freq.     808.24  E(vib)   ...       0.05
freq.     850.93  E(vib)   ...       0.04
freq.     857.32  E(vib)   ...       0.04
freq.     866.71  E(vib)   ...       0.04
freq.     956.89  E(vib)   ...       0.03
freq.     964.16  E(vib)   ...       0.03
freq.     998.53  E(vib)   ...       0.02
freq.    1028.13  E(vib)   ...       0.02
freq.    1036.63  E(vib)   ...       0.02
freq.    1112.45  E(vib)   ...       0.01
freq.    1167.94  E(vib)   ...       0.01
freq.    1239.75  E(vib)   ...       0.01
freq.    1275.38  E(vib)   ...       0.01
freq.    1311.24  E(vib)   ...       0.01
freq.    1338.76  E(vib)   ...       0.01
freq.    1409.86  E(vib)   ...       0.00
freq.    1441.11  E(vib)   ...       0.00
freq.    1476.49  E(vib)   ...       0.00
freq.    1549.82  E(vib)   ...       0.00
freq.    1559.30  E(vib)   ...       0.00
freq.    1639.56  E(vib)   ...       0.00
freq.    1673.56  E(vib)   ...       0.00
freq.    3127.96  E(vib)   ...       0.00
freq.    3145.83  E(vib)   ...       0.00
freq.    3149.30  E(vib)   ...       0.00
freq.    3154.90  E(vib)   ...       0.00
freq.    3169.29  E(vib)   ...       0.00
freq.    3174.78  E(vib)   ...       0.00
freq.    3235.31  E(vib)   ...       0.00

------------
INNER ENERGY
------------

The inner energy is: U= E(el) + E(ZPE) + E(vib) + E(rot) + E(trans)
    E(el)   - is the total energy from the electronic structure calculation
              = E(kin-el) + E(nuc-el) + E(el-el) + E(nuc-nuc)
    E(ZPE)  - the the zero temperature vibrational energy from the frequency calculation
    E(vib)  - the the finite temperature correction to E(ZPE) due to population
              of excited vibrational states
    E(rot)  - is the rotational thermal energy
    E(trans)- is the translational thermal energy

Summary of contributions to the inner energy U:
Electronic energy                ...   -384.10295164 Eh
Zero point energy                ...      0.12439330 Eh      78.06 kcal/mol
Thermal vibrational correction   ...      0.00469399 Eh       2.95 kcal/mol
Thermal rotational correction    ...      0.00141627 Eh       0.89 kcal/mol
Thermal translational correction ...      0.00141627 Eh       0.89 kcal/mol
-----------------------------------------------------------------------
Total thermal energy                   -383.97103181 Eh

Summary of corrections to the electronic energy:
(perhaps to be used in another calculation)
Total thermal correction                  0.00752653 Eh       4.72 kcal/mol
Non-thermal (ZPE) correction              0.12439330 Eh      78.06 kcal/mol
-----------------------------------------------------------------------
Total correction                          0.13191983 Eh      82.78 kcal/mol

--------
ENTHALPY
--------

The enthalpy is H = U + kB*T
                kB is Boltzmann's constant
Total free energy                 ...   -383.97103181 Eh
Thermal Enthalpy correction       ...      0.00094421 Eh       0.59 kcal/mol
-----------------------------------------------------------------------
Total Enthalpy                    ...   -383.97008760 Eh

Note: Rotational entropy computed according to Herzberg
Infrared and Raman Spectra, Chapter V,1, Van Nostrand Reinhold, 1945
Point Group:  Cs, Symmetry Number:   1
Rotational constants in cm-1:     0.171337     0.033718     0.028174

Vibrational entropy computed according to the QRRHO of S. Grimme
Chem.Eur.J. 2012 18 9955

-------
ENTROPY
-------

The entropy contributions are T*S = T*(S(el)+S(vib)+S(rot)+S(trans))
     S(el)   - electronic entropy
     S(vib)  - vibrational entropy
     S(rot)  - rotational entropy
     S(trans)- translational entropy
The entropies will be listed as multiplied by the temperature to get
units of energy

Electronic entropy                ...      0.00000000 Eh      0.00 kcal/mol
Vibrational entropy               ...      0.00760713 Eh      4.77 kcal/mol
Rotational entropy                ...      0.01362895 Eh      8.55 kcal/mol
Translational entropy             ...      0.01911931 Eh     12.00 kcal/mol
-----------------------------------------------------------------------
Final entropy term                ...      0.04035540 Eh     25.32 kcal/mol

In case the symmetry of your molecule has not been determined correctly
or in case you have a reason to use a different symmetry number we print
out the resulting rotational entropy values for sn=1,12 :
 --------------------------------------------------------
|  sn= 1 | S(rot)=       0.01362895 Eh      8.55 kcal/mol|
|  sn= 2 | S(rot)=       0.01297450 Eh      8.14 kcal/mol|
|  sn= 3 | S(rot)=       0.01259166 Eh      7.90 kcal/mol|
|  sn= 4 | S(rot)=       0.01232004 Eh      7.73 kcal/mol|
|  sn= 5 | S(rot)=       0.01210935 Eh      7.60 kcal/mol|
|  sn= 6 | S(rot)=       0.01193721 Eh      7.49 kcal/mol|
|  sn= 7 | S(rot)=       0.01179166 Eh      7.40 kcal/mol|
|  sn= 8 | S(rot)=       0.01166558 Eh      7.32 kcal/mol|
|  sn= 9 | S(rot)=       0.01155438 Eh      7.25 kcal/mol|
|  sn=10 | S(rot)=       0.01145490 Eh      7.19 kcal/mol|
|  sn=11 | S(rot)=       0.01136491 Eh      7.13 kcal/mol|
|  sn=12 | S(rot)=       0.01128275 Eh      7.08 kcal/mol|
 --------------------------------------------------------

-------------------
GIBBS FREE ENERGY
-------------------

The Gibbs free energy is G = H - T*S

Total enthalpy                    ...   -383.97008760 Eh
Total entropy correction          ...     -0.04035540 Eh    -25.32 kcal/mol
-----------------------------------------------------------------------
Final Gibbs free energy         ...   -384.01044299 Eh

                             ****ORCA TERMINATED NORMALLY****
TOTAL RUN TIME: 0 days 0 hours 4 minutes 17 seconds 668 msec
