                         Program Version 5.0.4 -  RELEASE  -
|  1> %pal nprocs 24 end
|  2> %maxcore 3500
|  3> ! PBE0 D3BJ def2-TZVP TightSCF OPT FREQ TightOpt
|  4> ! CPCM(dmso)
|  5> %scf
|  6> MaxIter 800
|  7> end
|  8> %geom
|  9> MaxIter 800
| 10> MaxStep 0.2
| 11> end
| 12> *xyz -1 1
| 13>
| 14> C      -0.00000100     -0.54976100     -1.58815400
| 15> C      -0.00000000      0.68444400     -0.91112200
| 16> C      -0.00000000     -1.73382100     -0.82692500
| 17> H       0.00000000      1.60350100     -1.48854100
| 18> H      -0.00000000     -2.69078200     -1.33903300
| 19> C       0.00000000      0.73434200      0.45829800
| 20> C       0.00000000     -1.68883200      0.54271600
| 21> H      -0.00000000      1.69353600      0.96686100
| 22> H       0.00000000     -2.61120900      1.11537100
| 23> C       0.00000000     -0.45048600      1.27161600
| 24> O      -0.00000000     -0.40645800      2.53382600
| 25> C      -0.00000000     -0.59825400     -2.99558500
| 26> N       0.00000100     -0.63757700     -4.15429800
| 27> *
| 28>
| 29>                          ****END OF INPUT****
 Total Charge           Charge          ....   -1
 Multiplicity           Mult            ....    1
 Number of Electrons    NEL             ....   62
Dispersion correction           -0.012313444
FINAL SINGLE POINT ENERGY      -398.957742133136
Dispersion correction            ... done
Dispersion correction           -0.012312879
FINAL SINGLE POINT ENERGY      -398.957742423626
Dispersion correction            ... done
                    ***********************HURRAY********************

CARTESIAN COORDINATES (ANGSTROEM)
---------------------------------
  C     -0.000001   -0.549764   -1.588633
  C     -0.000000    0.684320   -0.911030
  C     -0.000000   -1.733841   -0.826966
  H     -0.000000    1.603411   -1.488314
  H     -0.000000   -2.690708   -1.339152
  C      0.000000    0.734343    0.458541
  C      0.000000   -1.688868    0.542751
  H     -0.000000    1.693561    0.966875
  H      0.000000   -2.610769    1.116012
  C      0.000000   -0.450490    1.271750
  O     -0.000000   -0.406718    2.534161
  C      0.000000   -0.598249   -2.996116
  N      0.000001   -0.637585   -4.154850

 Multiplicity           Mult            ....    1
 Number of Electrons    NEL             ....   62
 Basis Dimension        Dim             ....  303

ORBITAL ENERGIES
----------------

  NO   OCC          E(Eh)            E(eV)
   0   2.0000     -19.130508      -520.5676
   1   2.0000     -14.367023      -390.9466
   2   2.0000     -10.261525      -279.2303
   3   2.0000     -10.256550      -279.0949
   4   2.0000     -10.232567      -278.4423
   5   2.0000     -10.226785      -278.2850
   6   2.0000     -10.226735      -278.2836
   7   2.0000     -10.200439      -277.5681
   8   2.0000     -10.200425      -277.5677
   9   2.0000      -1.000390       -27.2220
  10   2.0000      -0.927043       -25.2261
  11   2.0000      -0.865207       -23.5435
  12   2.0000      -0.763016       -20.7627
  13   2.0000      -0.752272       -20.4704
  14   2.0000      -0.618293       -16.8246
  15   2.0000      -0.616800       -16.7840
  16   2.0000      -0.553345       -15.0573
  17   2.0000      -0.476263       -12.9598
  18   2.0000      -0.461523       -12.5587
  19   2.0000      -0.428105       -11.6493
  20   2.0000      -0.423927       -11.5356
  21   2.0000      -0.409344       -11.1388
  22   2.0000      -0.388685       -10.5767
  23   2.0000      -0.374876       -10.2009
  24   2.0000      -0.371002       -10.0955
  25   2.0000      -0.365729        -9.9520
  26   2.0000      -0.334302        -9.0968
  27   2.0000      -0.313843        -8.5401
  28   2.0000      -0.265421        -7.2225
  29   2.0000      -0.233457        -6.3527
  30   2.0000      -0.196215        -5.3393
  31   0.0000      -0.007697        -0.2095
  32   0.0000       0.003730         0.1015
  33   0.0000       0.044875         1.2211
  34   0.0000       0.064365         1.7515
  35   0.0000       0.101412         2.7596

MULLIKEN ATOMIC CHARGES
-----------------------
   0 C :    0.245157
   1 C :   -0.266326
   2 C :   -0.266489
   3 H :    0.146508
   4 H :    0.146616
   5 C :   -0.274707
   6 C :   -0.274480
   7 H :    0.113788
   8 H :    0.113737
   9 C :    0.279743
  10 O :   -0.604179
  11 C :   -0.193177
  12 N :   -0.166193
Sum of atomic charges:   -1.0000000

LOEWDIN ATOMIC CHARGES
----------------------
   0 C :   -0.219638
   1 C :   -0.121969
   2 C :   -0.121912
   3 H :    0.156539
   4 H :    0.156582
   5 C :   -0.168986
   6 C :   -0.169031
   7 H :    0.142941
   8 H :    0.142932
   9 C :   -0.414567
  10 O :   -0.135151
  11 C :   -0.189459
  12 N :   -0.058281

  Mayer bond orders larger than 0.100000
B(  0-C ,  1-C ) :   1.2476 B(  0-C ,  2-C ) :   1.2476 B(  0-C , 11-C ) :   0.9973
B(  1-C ,  3-H ) :   0.9695 B(  1-C ,  5-C ) :   1.5022 B(  2-C ,  4-H ) :   0.9696
B(  2-C ,  6-C ) :   1.5018 B(  5-C ,  7-H ) :   0.9834 B(  5-C ,  9-C ) :   1.1730
B(  6-C ,  8-H ) :   0.9834 B(  6-C ,  9-C ) :   1.1729 B(  9-C , 10-O ) :   1.7251
B( 11-C , 12-N ) :   3.0291

Dispersion correction           -0.012312635
FINAL SINGLE POINT ENERGY      -398.957742519919

DIPOLE MOMENT
-------------
                                X             Y             Z
Electronic contribution:     -0.00000      -0.07960      -2.28885
Nuclear contribution   :     -0.00000       0.04977       1.45769
                        -----------------------------------------
Total Dipole Moment    :     -0.00000      -0.02983      -0.83117
                        -----------------------------------------
Magnitude (a.u.)       :      0.83170
Magnitude (Debye)      :      2.11402

Dispersion correction in the Hessian             ... done   (      0.2 sec)

VIBRATIONAL FREQUENCIES
-----------------------

Scaling factor for frequencies =  1.000000000  (already applied!)

   0:         0.00 cm**-1
   1:         0.00 cm**-1
   2:         0.00 cm**-1
   3:         0.00 cm**-1
   4:         0.00 cm**-1
   5:         0.00 cm**-1
   6:        95.99 cm**-1
   7:       159.10 cm**-1
   8:       232.04 cm**-1
   9:       417.30 cm**-1
  10:       420.16 cm**-1
  11:       449.58 cm**-1
  12:       493.90 cm**-1
  13:       569.89 cm**-1
  14:       574.73 cm**-1
  15:       661.51 cm**-1
  16:       725.63 cm**-1
  17:       741.02 cm**-1
  18:       806.50 cm**-1
  19:       842.56 cm**-1
  20:       860.45 cm**-1
  21:       970.58 cm**-1
  22:       973.21 cm**-1
  23:       998.58 cm**-1
  24:      1109.86 cm**-1
  25:      1166.65 cm**-1
  26:      1246.93 cm**-1
  27:      1277.86 cm**-1
  28:      1325.66 cm**-1
  29:      1428.41 cm**-1
  30:      1495.65 cm**-1
  31:      1543.13 cm**-1
  32:      1567.72 cm**-1
  33:      1638.87 cm**-1
  34:      2286.06 cm**-1
  35:      3173.51 cm**-1
  36:      3173.98 cm**-1
  37:      3191.05 cm**-1
  38:      3193.66 cm**-1

IR SPECTRUM
-----------

 Mode   freq       eps      Int      T**2         TX        TY        TZ
       cm**-1   L/(mol*cm) km/mol    a.u.
----------------------------------------------------------------------------
  6:     95.99   0.003674   18.57  0.011945  ( 0.109295 -0.000002 -0.000008)
  7:    159.10   0.004235   21.40  0.008306  (-0.000000  0.091099 -0.002593)
  8:    232.04   0.000018    0.09  0.000025  ( 0.004978  0.000002  0.000020)
  9:    417.30   0.003664   18.52  0.002740  ( 0.000001 -0.001815 -0.052316)
 10:    420.16   0.000000    0.00  0.000000  ( 0.000271 -0.000001 -0.000003)
 11:    449.58   0.001314    6.64  0.000912  (-0.000000  0.030190 -0.000614)
 12:    493.90   0.001890    9.55  0.001194  ( 0.034553 -0.000001 -0.000006)
 13:    569.89   0.008763   44.28  0.004798  (-0.069270 -0.000000 -0.000006)
 14:    574.73   0.000268    1.35  0.000145  (-0.000000  0.012054 -0.000201)
 15:    661.51   0.000004    0.02  0.000002  ( 0.000000 -0.001345  0.000111)
 16:    725.63   0.011880   60.04  0.005109  ( 0.000001  0.002214  0.071443)
 17:    741.02   0.000746    3.77  0.000314  (-0.017729 -0.000001 -0.000000)
 18:    806.50   0.000000    0.00  0.000000  (-0.000021 -0.000000  0.000001)
 19:    842.56   0.000867    4.38  0.000321  (-0.000004 -0.000782 -0.017906)
 20:    860.45   0.022072  111.54  0.008005  ( 0.089471 -0.000001 -0.000009)
 21:    970.58   0.000357    1.80  0.000115  (-0.010710 -0.000000 -0.000000)
 22:    973.21   0.000001    0.00  0.000000  ( 0.000416 -0.000002 -0.000000)
 23:    998.58   0.002577   13.02  0.000805  (-0.000000 -0.000723 -0.028370)
 24:   1109.86   0.005098   25.76  0.001433  ( 0.000000 -0.037852  0.000754)
 25:   1166.65   0.045123  228.03  0.012070  (-0.000000  0.003473  0.109807)
 26:   1246.93   0.018700   94.50  0.004680  ( 0.000000 -0.002802 -0.068352)
 27:   1277.86   0.000039    0.20  0.000010  (-0.000000  0.003083 -0.000122)
 28:   1325.66   0.002518   12.73  0.000593  ( 0.000000  0.024330 -0.000907)
 29:   1428.41   0.056217  284.10  0.012282  (-0.000000  0.003330  0.110772)
 30:   1495.65   0.000960    4.85  0.000200  ( 0.000000 -0.014053 -0.001672)
 31:   1543.13   0.012507   63.21  0.002529  ( 0.000000  0.050247 -0.002119)
 32:   1567.72   0.195194  986.43  0.038855  ( 0.000000 -0.006863 -0.196996)
 33:   1638.87   0.187791  949.02  0.035758  ( 0.000000 -0.006479 -0.188987)
 34:   2286.06   0.190118  960.78  0.025952  ( 0.000000 -0.005646 -0.160999)
 35:   3173.51   0.004874   24.63  0.000479  (-0.000000  0.004340  0.021458)
 36:   3173.98   0.002169   10.96  0.000213  (-0.000000  0.006214 -0.013214)
 37:   3191.05   0.007869   39.77  0.000770  ( 0.000000  0.027740  0.000090)
 38:   3193.66   0.000560    2.83  0.000055  ( 0.000000 -0.003078  0.006729)

--------------------------
THERMOCHEMISTRY AT 298.15K
--------------------------

Temperature         ... 298.15 K
Pressure            ... 1.00 atm
Total Mass          ... 118.12 AMU

Throughout the following assumptions are being made:
  (1) The electronic state is orbitally nondegenerate
  (2) There are no thermally accessible electronically excited states
  (3) Hindered rotations indicated by low frequency modes are not
      treated as such but are treated as vibrations and this may
      cause some error
  (4) All equations used are the standard statistical mechanics
      equations for an ideal gas
  (5) All vibrations are strictly harmonic

freq.      95.99  E(vib)   ...       0.47
freq.     159.10  E(vib)   ...       0.39
freq.     232.04  E(vib)   ...       0.32
freq.     417.30  E(vib)   ...       0.18
freq.     420.16  E(vib)   ...       0.18
freq.     449.58  E(vib)   ...       0.17
freq.     493.90  E(vib)   ...       0.14
freq.     569.89  E(vib)   ...       0.11
freq.     574.73  E(vib)   ...       0.11
freq.     661.51  E(vib)   ...       0.08
freq.     725.63  E(vib)   ...       0.06
freq.     741.02  E(vib)   ...       0.06
freq.     806.50  E(vib)   ...       0.05
freq.     842.56  E(vib)   ...       0.04
freq.     860.45  E(vib)   ...       0.04
freq.     970.58  E(vib)   ...       0.03
freq.     973.21  E(vib)   ...       0.03
freq.     998.58  E(vib)   ...       0.02
freq.    1109.86  E(vib)   ...       0.02
freq.    1166.65  E(vib)   ...       0.01
freq.    1246.93  E(vib)   ...       0.01
freq.    1277.86  E(vib)   ...       0.01
freq.    1325.66  E(vib)   ...       0.01
freq.    1428.41  E(vib)   ...       0.00
freq.    1495.65  E(vib)   ...       0.00
freq.    1543.13  E(vib)   ...       0.00
freq.    1567.72  E(vib)   ...       0.00
freq.    1638.87  E(vib)   ...       0.00
freq.    2286.06  E(vib)   ...       0.00
freq.    3173.51  E(vib)   ...       0.00
freq.    3173.98  E(vib)   ...       0.00
freq.    3191.05  E(vib)   ...       0.00
freq.    3193.66  E(vib)   ...       0.00

------------
INNER ENERGY
------------

The inner energy is: U= E(el) + E(ZPE) + E(vib) + E(rot) + E(trans)
    E(el)   - is the total energy from the electronic structure calculation
              = E(kin-el) + E(nuc-el) + E(el-el) + E(nuc-nuc)
    E(ZPE)  - the the zero temperature vibrational energy from the frequency calculation
    E(vib)  - the the finite temperature correction to E(ZPE) due to population
              of excited vibrational states
    E(rot)  - is the rotational thermal energy
    E(trans)- is the translational thermal energy

Summary of contributions to the inner energy U:
Electronic energy                ...   -398.95774252 Eh
Zero point energy                ...      0.09069782 Eh      56.91 kcal/mol
Thermal vibrational correction   ...      0.00406628 Eh       2.55 kcal/mol
Thermal rotational correction    ...      0.00141627 Eh       0.89 kcal/mol
Thermal translational correction ...      0.00141627 Eh       0.89 kcal/mol
-----------------------------------------------------------------------
Total thermal energy                   -398.86014588 Eh

Summary of corrections to the electronic energy:
(perhaps to be used in another calculation)
Total thermal correction                  0.00689882 Eh       4.33 kcal/mol
Non-thermal (ZPE) correction              0.09069782 Eh      56.91 kcal/mol
-----------------------------------------------------------------------
Total correction                          0.09759664 Eh      61.24 kcal/mol

--------
ENTHALPY
--------

The enthalpy is H = U + kB*T
                kB is Boltzmann's constant
Total free energy                 ...   -398.86014588 Eh
Thermal Enthalpy correction       ...      0.00094421 Eh       0.59 kcal/mol
-----------------------------------------------------------------------
Total Enthalpy                    ...   -398.85920167 Eh

Note: Rotational entropy computed according to Herzberg
Infrared and Raman Spectra, Chapter V,1, Van Nostrand Reinhold, 1945
Point Group:  Cs, Symmetry Number:   1
Rotational constants in cm-1:     0.189157     0.034055     0.028859

Vibrational entropy computed according to the QRRHO of S. Grimme
Chem.Eur.J. 2012 18 9955

-------
ENTROPY
-------

The entropy contributions are T*S = T*(S(el)+S(vib)+S(rot)+S(trans))
     S(el)   - electronic entropy
     S(vib)  - vibrational entropy
     S(rot)  - rotational entropy
     S(trans)- translational entropy
The entropies will be listed as multiplied by the temperature to get
units of energy

Electronic entropy                ...      0.00000000 Eh      0.00 kcal/mol
Vibrational entropy               ...      0.00658237 Eh      4.13 kcal/mol
Rotational entropy                ...      0.01356620 Eh      8.51 kcal/mol
Translational entropy             ...      0.01910704 Eh     11.99 kcal/mol
-----------------------------------------------------------------------
Final entropy term                ...      0.03925561 Eh     24.63 kcal/mol

In case the symmetry of your molecule has not been determined correctly
or in case you have a reason to use a different symmetry number we print
out the resulting rotational entropy values for sn=1,12 :
 --------------------------------------------------------
|  sn= 1 | S(rot)=       0.01356620 Eh      8.51 kcal/mol|
|  sn= 2 | S(rot)=       0.01291175 Eh      8.10 kcal/mol|
|  sn= 3 | S(rot)=       0.01252891 Eh      7.86 kcal/mol|
|  sn= 4 | S(rot)=       0.01225729 Eh      7.69 kcal/mol|
|  sn= 5 | S(rot)=       0.01204660 Eh      7.56 kcal/mol|
|  sn= 6 | S(rot)=       0.01187446 Eh      7.45 kcal/mol|
|  sn= 7 | S(rot)=       0.01172891 Eh      7.36 kcal/mol|
|  sn= 8 | S(rot)=       0.01160283 Eh      7.28 kcal/mol|
|  sn= 9 | S(rot)=       0.01149163 Eh      7.21 kcal/mol|
|  sn=10 | S(rot)=       0.01139215 Eh      7.15 kcal/mol|
|  sn=11 | S(rot)=       0.01130216 Eh      7.09 kcal/mol|
|  sn=12 | S(rot)=       0.01122000 Eh      7.04 kcal/mol|
 --------------------------------------------------------

-------------------
GIBBS FREE ENERGY
-------------------

The Gibbs free energy is G = H - T*S

Total enthalpy                    ...   -398.85920167 Eh
Total entropy correction          ...     -0.03925561 Eh    -24.63 kcal/mol
-----------------------------------------------------------------------
Final Gibbs free energy         ...   -398.89845728 Eh

For completeness - the Gibbs free energy minus the electronic energy
G-E(el)                           ...      0.05928524 Eh     37.20 kcal/mol

                             ****ORCA TERMINATED NORMALLY****
TOTAL RUN TIME: 0 days 0 hours 3 minutes 30 seconds 897 msec
