                         Program Version 5.0.4 -  RELEASE  -
|  1> %pal nprocs 24 end
|  2> %maxcore 3500
|  3> ! PBE0 D3BJ def2-TZVP TightSCF OPT FREQ TightOpt
|  4> ! CPCM(dmso)
|  5> %scf
|  6> MaxIter 800
|  7> end
|  8> %geom
|  9> MaxIter 800
| 10> MaxStep 0.2
| 11> end
| 12> *xyz 0 1
| 13>
| 14> C      -0.00000000     -0.54562300     -1.56723900
| 15> C      -0.00000000      0.68989600     -0.91572700
| 16> C      -0.00000000     -1.72679800     -0.81892200
| 17> H       0.00000000      1.60602500     -1.49363300
| 18> H       0.00000000     -2.68476600     -1.32447400
| 19> C       0.00000000      0.74325500      0.46223600
| 20> C      -0.00000000     -1.67342400      0.55798600
| 21> H      -0.00000000      1.69988100      0.97372500
| 22> H       0.00000000     -2.58217900      1.14758500
| 23> C       0.00000000     -0.43744100      1.20450400
| 24> O       0.00000000     -0.43907700      2.54777800
| 25> H       0.00000000      0.46640800      2.88255700
| 26> C       0.00000000     -0.59984100     -2.98680600
| 27> N       0.00000000     -0.64218300     -4.13994200
| 28> *
| 29>
| 30>                          ****END OF INPUT****
 Total Charge           Charge          ....    0
 Multiplicity           Mult            ....    1
 Number of Electrons    NEL             ....   62
Dispersion correction           -0.012904110
FINAL SINGLE POINT ENERGY      -399.431237960577
Dispersion correction            ... done
Dispersion correction           -0.012903801
FINAL SINGLE POINT ENERGY      -399.431238204537
Dispersion correction            ... done
                    ***********************HURRAY********************

CARTESIAN COORDINATES (ANGSTROEM)
---------------------------------
  C     -0.000000   -0.545653   -1.567347
  C      0.000000    0.689894   -0.915689
  C     -0.000000   -1.727041   -0.818953
  H      0.000000    1.605946   -1.493601
  H      0.000000   -2.684711   -1.324934
  C      0.000000    0.743280    0.462476
  C     -0.000000   -1.673620    0.558051
  H     -0.000000    1.699925    0.973777
  H      0.000000   -2.581947    1.148175
  C     -0.000000   -0.437562    1.204705
  O     -0.000000   -0.439164    2.548110
  H      0.000000    0.466603    2.882021
  C     -0.000000   -0.599854   -2.987007
  N     -0.000000   -0.641963   -4.140155

 Multiplicity           Mult            ....    1
 Number of Electrons    NEL             ....   62
 Basis Dimension        Dim             ....  309

ORBITAL ENERGIES
----------------

  NO   OCC          E(Eh)            E(eV)
   0   2.0000     -19.251684      -523.8650
   1   2.0000     -14.388293      -391.5253
   2   2.0000     -10.308848      -280.5180
   3   2.0000     -10.274137      -279.5735
   4   2.0000     -10.267812      -279.4014
   5   2.0000     -10.253529      -279.0127
   6   2.0000     -10.252794      -278.9927
   7   2.0000     -10.239764      -278.6382
   8   2.0000     -10.237674      -278.5813
   9   2.0000      -1.112729       -30.2789
  10   2.0000      -0.948062       -25.7981
  11   2.0000      -0.904840       -24.6219
  12   2.0000      -0.802347       -21.8330
  13   2.0000      -0.795846       -21.6561
  14   2.0000      -0.680285       -18.5115
  15   2.0000      -0.657093       -17.8804
  16   2.0000      -0.582654       -15.8548
  17   2.0000      -0.579142       -15.7592
  18   2.0000      -0.516687       -14.0598
  19   2.0000      -0.470689       -12.8081
  20   2.0000      -0.455286       -12.3890
  21   2.0000      -0.452924       -12.3247
  22   2.0000      -0.441170       -12.0048
  23   2.0000      -0.417421       -11.3586
  24   2.0000      -0.412668       -11.2293
  25   2.0000      -0.394239       -10.7278
  26   2.0000      -0.375455       -10.2167
  27   2.0000      -0.357058        -9.7160
  28   2.0000      -0.354403        -9.6438
  29   2.0000      -0.290640        -7.9087
  30   2.0000      -0.256067        -6.9679
  31   0.0000      -0.042739        -1.1630
  32   0.0000      -0.025085        -0.6826
  33   0.0000       0.030209         0.8220
  34   0.0000       0.054537         1.4840
  35   0.0000       0.061131         1.6634

MULLIKEN ATOMIC CHARGES
-----------------------
   0 C :    0.297786
   1 C :   -0.242533
   2 C :   -0.232632
   3 H :    0.170540
   4 H :    0.166779
   5 C :   -0.217522
   6 C :   -0.219379
   7 H :    0.169587
   8 H :    0.156785
   9 C :    0.285737
  10 O :   -0.408911
  11 H :    0.375321
  12 C :   -0.194352
  13 N :   -0.107205
Sum of atomic charges:   -0.0000000

LOEWDIN ATOMIC CHARGES
----------------------
   0 C :   -0.173859
   1 C :   -0.074609
   2 C :   -0.074705
   3 H :    0.167786
   4 H :    0.167594
   5 C :   -0.121262
   6 C :   -0.112261
   7 H :    0.164401
   8 H :    0.162879
   9 C :   -0.272968
  10 O :    0.110108
  11 H :    0.215009
  12 C :   -0.152065
  13 N :   -0.006049

  Mayer bond orders larger than 0.100000
B(  0-C ,  1-C ) :   1.3091 B(  0-C ,  2-C ) :   1.3036 B(  0-C , 12-C ) :   0.9599
B(  1-C ,  3-H ) :   0.9633 B(  1-C ,  5-C ) :   1.4369 B(  2-C ,  4-H ) :   0.9780
B(  2-C ,  6-C ) :   1.4848 B(  5-C ,  7-H ) :   0.9574 B(  5-C ,  9-C ) :   1.3332
B(  6-C ,  8-H ) :   0.9754 B(  6-C ,  9-C ) :   1.3443 B(  9-C , 10-O ) :   1.1664
B( 10-O , 11-H ) :   0.8441 B( 12-C , 13-N ) :   3.0389

Dispersion correction           -0.012903728
FINAL SINGLE POINT ENERGY      -399.431238304438

DIPOLE MOMENT
-------------
                                X             Y             Z
Electronic contribution:      0.00000      -0.13045      -1.84693
Nuclear contribution   :      0.00000       0.96782       4.58965
                        -----------------------------------------
Total Dipole Moment    :      0.00000       0.83737       2.74272
                        -----------------------------------------
Magnitude (a.u.)       :      2.86770
Magnitude (Debye)      :      7.28911

Dispersion correction in the Hessian             ... done   (      0.2 sec)

VIBRATIONAL FREQUENCIES
-----------------------

Scaling factor for frequencies =  1.000000000  (already applied!)

   0:         0.00 cm**-1
   1:         0.00 cm**-1
   2:         0.00 cm**-1
   3:         0.00 cm**-1
   4:         0.00 cm**-1
   5:         0.00 cm**-1
   6:       105.67 cm**-1
   7:       157.74 cm**-1
   8:       264.29 cm**-1
   9:       404.66 cm**-1
  10:       415.45 cm**-1
  11:       419.15 cm**-1
  12:       423.79 cm**-1
  13:       497.91 cm**-1
  14:       574.49 cm**-1
  15:       576.79 cm**-1
  16:       665.71 cm**-1
  17:       720.29 cm**-1
  18:       742.88 cm**-1
  19:       832.80 cm**-1
  20:       861.85 cm**-1
  21:       863.29 cm**-1
  22:       975.15 cm**-1
  23:       985.41 cm**-1
  24:      1032.44 cm**-1
  25:      1131.83 cm**-1
  26:      1187.49 cm**-1
  27:      1202.60 cm**-1
  28:      1240.66 cm**-1
  29:      1324.81 cm**-1
  30:      1337.06 cm**-1
  31:      1393.61 cm**-1
  32:      1478.45 cm**-1
  33:      1552.52 cm**-1
  34:      1640.13 cm**-1
  35:      1666.82 cm**-1
  36:      2338.19 cm**-1
  37:      3199.23 cm**-1
  38:      3211.50 cm**-1
  39:      3219.89 cm**-1
  40:      3224.78 cm**-1
  41:      3807.47 cm**-1

IR SPECTRUM
-----------

 Mode   freq       eps      Int      T**2         TX        TY        TZ
       cm**-1   L/(mol*cm) km/mol    a.u.
----------------------------------------------------------------------------
  6:    105.67   0.000717    3.62  0.002117  (-0.046010  0.000002 -0.000012)
  7:    157.74   0.002135   10.79  0.004224  (-0.000000  0.064097  0.010772)
  8:    264.29   0.000503    2.54  0.000594  ( 0.024374  0.000001 -0.000009)
  9:    404.66   0.025647  129.61  0.019778  ( 0.140635  0.000002 -0.000001)
 10:    415.45   0.003239   16.37  0.002433  (-0.000003 -0.003063  0.049233)
 11:    419.15   0.000004    0.02  0.000003  ( 0.000005 -0.000692 -0.001507)
 12:    423.79   0.010848   54.82  0.007988  (-0.089374  0.000002 -0.000005)
 13:    497.91   0.000438    2.21  0.000275  (-0.016571 -0.000001  0.000004)
 14:    574.49   0.009094   45.96  0.004940  ( 0.070284  0.000000 -0.000008)
 15:    576.79   0.000397    2.01  0.000215  ( 0.000003  0.013365  0.006021)
 16:    665.71   0.000210    1.06  0.000098  ( 0.000000  0.000182 -0.009909)
 17:    720.29   0.005595   28.28  0.002424  (-0.000000 -0.000158 -0.049235)
 18:    742.88   0.000000    0.00  0.000000  (-0.000024  0.000001 -0.000003)
 19:    832.80   0.000736    3.72  0.000276  ( 0.016608 -0.000001  0.000002)
 20:    861.85   0.019598   99.04  0.007096  ( 0.084239  0.000000 -0.000002)
 21:    863.29   0.002289   11.57  0.000827  (-0.000011 -0.001839 -0.028704)
 22:    975.15   0.000091    0.46  0.000029  ( 0.005392 -0.000001  0.000001)
 23:    985.41   0.000011    0.06  0.000003  ( 0.001869  0.000000  0.000002)
 24:   1032.44   0.000274    1.39  0.000083  ( 0.000000 -0.002014 -0.008879)
 25:   1131.83   0.004053   20.48  0.001117  (-0.000000 -0.029850 -0.015044)
 26:   1187.49   0.033221  167.88  0.008730  (-0.000000 -0.005727 -0.093259)
 27:   1202.60   0.042022  212.36  0.010904  (-0.000000  0.006524 -0.104219)
 28:   1240.66   0.000960    4.85  0.000241  ( 0.000000 -0.000799  0.015516)
 29:   1324.81   0.053905  272.41  0.012698  (-0.000000 -0.004719 -0.112585)
 30:   1337.06   0.000784    3.96  0.000183  (-0.000000 -0.009621 -0.009511)
 31:   1393.61   0.007490   37.85  0.001677  ( 0.000000 -0.003775  0.040778)
 32:   1478.45   0.004817   24.34  0.001017  ( 0.000000 -0.008627 -0.030698)
 33:   1552.52   0.035777  180.80  0.007191  ( 0.000000  0.002085  0.084777)
 34:   1640.13   0.009862   49.84  0.001876  (-0.000000 -0.022146  0.037229)
 35:   1666.82   0.061709  311.85  0.011553  ( 0.000000 -0.011657 -0.106852)
 36:   2338.19   0.065585  331.44  0.008753  (-0.000000 -0.004372 -0.093456)
 37:   3199.23   0.000837    4.23  0.000082  ( 0.000000  0.000127 -0.009035)
 38:   3211.50   0.000274    1.39  0.000027  ( 0.000000 -0.001323 -0.004989)
 39:   3219.89   0.000047    0.24  0.000005  ( 0.000000  0.001237  0.001742)
 40:   3224.78   0.000149    0.75  0.000014  ( 0.000000 -0.001255  0.003578)
 41:   3807.47   0.050353  254.46  0.004127  (-0.000000 -0.040562 -0.049816)

--------------------------
THERMOCHEMISTRY AT 298.15K
--------------------------

Temperature         ... 298.15 K
Pressure            ... 1.00 atm
Total Mass          ... 119.12 AMU

Throughout the following assumptions are being made:
  (1) The electronic state is orbitally nondegenerate
  (2) There are no thermally accessible electronically excited states
  (3) Hindered rotations indicated by low frequency modes are not
      treated as such but are treated as vibrations and this may
      cause some error
  (4) All equations used are the standard statistical mechanics
      equations for an ideal gas
  (5) All vibrations are strictly harmonic

freq.     105.67  E(vib)   ...       0.45
freq.     157.74  E(vib)   ...       0.40
freq.     264.29  E(vib)   ...       0.29
freq.     404.66  E(vib)   ...       0.19
freq.     415.45  E(vib)   ...       0.18
freq.     419.15  E(vib)   ...       0.18
freq.     423.79  E(vib)   ...       0.18
freq.     497.91  E(vib)   ...       0.14
freq.     574.49  E(vib)   ...       0.11
freq.     576.79  E(vib)   ...       0.11
freq.     665.71  E(vib)   ...       0.08
freq.     720.29  E(vib)   ...       0.07
freq.     742.88  E(vib)   ...       0.06
freq.     832.80  E(vib)   ...       0.04
freq.     861.85  E(vib)   ...       0.04
freq.     863.29  E(vib)   ...       0.04
freq.     975.15  E(vib)   ...       0.03
freq.     985.41  E(vib)   ...       0.02
freq.    1032.44  E(vib)   ...       0.02
freq.    1131.83  E(vib)   ...       0.01
freq.    1187.49  E(vib)   ...       0.01
freq.    1202.60  E(vib)   ...       0.01
freq.    1240.66  E(vib)   ...       0.01
freq.    1324.81  E(vib)   ...       0.01
freq.    1337.06  E(vib)   ...       0.01
freq.    1393.61  E(vib)   ...       0.00
freq.    1478.45  E(vib)   ...       0.00
freq.    1552.52  E(vib)   ...       0.00
freq.    1640.13  E(vib)   ...       0.00
freq.    1666.82  E(vib)   ...       0.00
freq.    2338.19  E(vib)   ...       0.00
freq.    3199.23  E(vib)   ...       0.00
freq.    3211.50  E(vib)   ...       0.00
freq.    3219.89  E(vib)   ...       0.00
freq.    3224.78  E(vib)   ...       0.00
freq.    3807.47  E(vib)   ...       0.00

------------
INNER ENERGY
------------

The inner energy is: U= E(el) + E(ZPE) + E(vib) + E(rot) + E(trans)
    E(el)   - is the total energy from the electronic structure calculation
              = E(kin-el) + E(nuc-el) + E(el-el) + E(nuc-nuc)
    E(ZPE)  - the the zero temperature vibrational energy from the frequency calculation
    E(vib)  - the the finite temperature correction to E(ZPE) due to population
              of excited vibrational states
    E(rot)  - is the rotational thermal energy
    E(trans)- is the translational thermal energy

Summary of contributions to the inner energy U:
Electronic energy                ...   -399.43123830 Eh
Zero point energy                ...      0.10405937 Eh      65.30 kcal/mol
Thermal vibrational correction   ...      0.00431855 Eh       2.71 kcal/mol
Thermal rotational correction    ...      0.00141627 Eh       0.89 kcal/mol
Thermal translational correction ...      0.00141627 Eh       0.89 kcal/mol
-----------------------------------------------------------------------
Total thermal energy                   -399.32002784 Eh

Summary of corrections to the electronic energy:
(perhaps to be used in another calculation)
Total thermal correction                  0.00715109 Eh       4.49 kcal/mol
Non-thermal (ZPE) correction              0.10405937 Eh      65.30 kcal/mol
-----------------------------------------------------------------------
Total correction                          0.11121046 Eh      69.79 kcal/mol

--------
ENTHALPY
--------

The enthalpy is H = U + kB*T
                kB is Boltzmann's constant
Total free energy                 ...   -399.32002784 Eh
Thermal Enthalpy correction       ...      0.00094421 Eh       0.59 kcal/mol
-----------------------------------------------------------------------
Total Enthalpy                    ...   -399.31908363 Eh

Note: Rotational entropy computed according to Herzberg
Infrared and Raman Spectra, Chapter V,1, Van Nostrand Reinhold, 1945
Point Group:  Cs, Symmetry Number:   1
Rotational constants in cm-1:     0.188192     0.033474     0.028419

Vibrational entropy computed according to the QRRHO of S. Grimme
Chem.Eur.J. 2012 18 9955

-------
ENTROPY
-------

The entropy contributions are T*S = T*(S(el)+S(vib)+S(rot)+S(trans))
     S(el)   - electronic entropy
     S(vib)  - vibrational entropy
     S(rot)  - rotational entropy
     S(trans)- translational entropy
The entropies will be listed as multiplied by the temperature to get
units of energy

Electronic entropy                ...      0.00000000 Eh      0.00 kcal/mol
Vibrational entropy               ...      0.00690893 Eh      4.34 kcal/mol
Rotational entropy                ...      0.01358400 Eh      8.52 kcal/mol
Translational entropy             ...      0.01911907 Eh     12.00 kcal/mol
-----------------------------------------------------------------------
Final entropy term                ...      0.03961200 Eh     24.86 kcal/mol

In case the symmetry of your molecule has not been determined correctly
or in case you have a reason to use a different symmetry number we print
out the resulting rotational entropy values for sn=1,12 :
 --------------------------------------------------------
|  sn= 1 | S(rot)=       0.01358400 Eh      8.52 kcal/mol|
|  sn= 2 | S(rot)=       0.01292954 Eh      8.11 kcal/mol|
|  sn= 3 | S(rot)=       0.01254671 Eh      7.87 kcal/mol|
|  sn= 4 | S(rot)=       0.01227508 Eh      7.70 kcal/mol|
|  sn= 5 | S(rot)=       0.01206440 Eh      7.57 kcal/mol|
|  sn= 6 | S(rot)=       0.01189225 Eh      7.46 kcal/mol|
|  sn= 7 | S(rot)=       0.01174671 Eh      7.37 kcal/mol|
|  sn= 8 | S(rot)=       0.01162063 Eh      7.29 kcal/mol|
|  sn= 9 | S(rot)=       0.01150942 Eh      7.22 kcal/mol|
|  sn=10 | S(rot)=       0.01140994 Eh      7.16 kcal/mol|
|  sn=11 | S(rot)=       0.01131995 Eh      7.10 kcal/mol|
|  sn=12 | S(rot)=       0.01123780 Eh      7.05 kcal/mol|
 --------------------------------------------------------

-------------------
GIBBS FREE ENERGY
-------------------

The Gibbs free energy is G = H - T*S

Total enthalpy                    ...   -399.31908363 Eh
Total entropy correction          ...     -0.03961200 Eh    -24.86 kcal/mol
-----------------------------------------------------------------------
Final Gibbs free energy         ...   -399.35869563 Eh

For completeness - the Gibbs free energy minus the electronic energy
G-E(el)                           ...      0.07254267 Eh     45.52 kcal/mol

                             ****ORCA TERMINATED NORMALLY****
TOTAL RUN TIME: 0 days 0 hours 3 minutes 42 seconds 172 msec
