                         Program Version 5.0.4 -  RELEASE  -
|  1> %pal nprocs 24 end
|  2> %maxcore 3500
|  3> ! PBE0 D3BJ def2-TZVP TightSCF OPT FREQ TightOpt
|  4> ! CPCM(dmso)
|  5> %scf
|  6> MaxIter 800
|  7> end
|  8> %geom
|  9> MaxIter 800
| 10> MaxStep 0.2
| 11> end
| 12> *xyz -1 1
| 13>
| 14> C       0.00007000     -0.58617300     -1.60038500
| 15> C       0.00001900      0.64947700     -0.93129100
| 16> C       0.00005900     -1.75251400     -0.81519800
| 17> H       0.00002400      1.55856500     -1.52417500
| 18> H       0.00009500     -2.71928300     -1.30641300
| 19> C      -0.00003300      0.72574100      0.43762800
| 20> C       0.00000700     -1.69207700      0.55534200
| 21> H      -0.00006900      1.69282500      0.93215200
| 22> H       0.00000200     -2.60686600      1.14102900
| 23> C      -0.00004200     -0.44578700      1.26872600
| 24> O      -0.00009000     -0.38420300      2.53230400
| 25> C       0.00012800     -0.61007400     -3.05096500
| 26> O       0.00002700      0.37089000     -3.77822600
| 27> O       0.00004200     -1.85718700     -3.56238300
| 28> C      -0.00004300     -1.94963400     -4.98123200
| 29> H      -0.88890700     -1.47657700     -5.40210700
| 30> H       0.88881600     -1.47665700     -5.40220700
| 31> H      -0.00010400     -3.01341800     -5.20980300
| 32> *
| 33>
| 34>                          ****END OF INPUT****
 Total Charge           Charge          ....   -1
 Multiplicity           Mult            ....    1
 Number of Electrons    NEL             ....   80
Dispersion correction           -0.016063081
FINAL SINGLE POINT ENERGY      -534.511418013603
Dispersion correction            ... done
Dispersion correction           -0.016061878
FINAL SINGLE POINT ENERGY      -534.511418421022
Dispersion correction            ... done
Dispersion correction           -0.016061269
FINAL SINGLE POINT ENERGY      -534.511418289074
Dispersion correction            ... done
                    ***********************HURRAY********************

CARTESIAN COORDINATES (ANGSTROEM)
---------------------------------
  C      0.000085   -0.585843   -1.600629
  C      0.000052    0.649730   -0.930907
  C      0.000082   -1.752479   -0.815244
  H      0.000055    1.558780   -1.523807
  H      0.000108   -2.719044   -1.306717
  C     -0.000015    0.725934    0.438201
  C      0.000017   -1.692157    0.555432
  H     -0.000061    1.692861    0.932822
  H     -0.000003   -2.606389    1.141823
  C     -0.000052   -0.445846    1.268973
  O     -0.000150   -0.384648    2.532754
  C      0.000047   -0.609742   -3.051505
  O      0.000054    0.370845   -3.778969
  O      0.000043   -1.857487   -3.562695
  C     -0.000047   -1.949993   -4.981432
  H     -0.888765   -1.476900   -5.402469
  H      0.888617   -1.476905   -5.402587
  H     -0.000066   -3.013667   -5.210247

 Multiplicity           Mult            ....    1
 Number of Electrons    NEL             ....   80
 Basis Dimension        Dim             ....  383

ORBITAL ENERGIES
----------------

  NO   OCC          E(Eh)            E(eV)
   0   2.0000     -19.240042      -523.5482
   1   2.0000     -19.174500      -521.7647
   2   2.0000     -19.127458      -520.4846
   3   2.0000     -10.333218      -281.1812
   4   2.0000     -10.259943      -279.1872
   5   2.0000     -10.256756      -279.1005
   6   2.0000     -10.216392      -278.0022
   7   2.0000     -10.215599      -277.9806
   8   2.0000     -10.207123      -277.7499
   9   2.0000     -10.194770      -277.4138
  10   2.0000     -10.194639      -277.4102
  11   2.0000      -1.125419       -30.6242
  12   2.0000      -1.029446       -28.0126
  13   2.0000      -0.996098       -27.1052
  14   2.0000      -0.857815       -23.3423
  15   2.0000      -0.766605       -20.8604
  16   2.0000      -0.753798       -20.5119
  17   2.0000      -0.713357       -19.4114
  18   2.0000      -0.612892       -16.6776
  19   2.0000      -0.607489       -16.5306
  20   2.0000      -0.567068       -15.4307
  21   2.0000      -0.537147       -14.6165
  22   2.0000      -0.491396       -13.3716
  23   2.0000      -0.490342       -13.3429
  24   2.0000      -0.456716       -12.4279
  25   2.0000      -0.450824       -12.2675
  26   2.0000      -0.443830       -12.0772
  27   2.0000      -0.415819       -11.3150
  28   2.0000      -0.410356       -11.1664
  29   2.0000      -0.408117       -11.1054
  30   2.0000      -0.385666       -10.4945
  31   2.0000      -0.370387       -10.0787
  32   2.0000      -0.362035        -9.8515
  33   2.0000      -0.339842        -9.2476
  34   2.0000      -0.317670        -8.6442
  35   2.0000      -0.311654        -8.4805
  36   2.0000      -0.285538        -7.7699
  37   2.0000      -0.258139        -7.0243
  38   2.0000      -0.229739        -6.2515
  39   2.0000      -0.192850        -5.2477
  40   0.0000      -0.014217        -0.3869
  41   0.0000       0.010393         0.2828
  42   0.0000       0.068919         1.8754
  43   0.0000       0.087744         2.3876
  44   0.0000       0.090073         2.4510

MULLIKEN ATOMIC CHARGES
-----------------------
   0 C :    0.072998
   1 C :   -0.236756
   2 C :   -0.247806
   3 H :    0.131789
   4 H :    0.138045
   5 C :   -0.277821
   6 C :   -0.281286
   7 H :    0.108364
   8 H :    0.107357
   9 C :    0.275992
  10 O :   -0.611722
  11 C :    0.362088
  12 O :   -0.472781
  13 O :   -0.248078
  14 C :   -0.253528
  15 H :    0.140654
  16 H :    0.140653
  17 H :    0.151838
Sum of atomic charges:   -1.0000000

LOEWDIN ATOMIC CHARGES
----------------------
   0 C :   -0.199177
   1 C :   -0.128426
   2 C :   -0.134133
   3 H :    0.151189
   4 H :    0.151045
   5 C :   -0.177416
   6 C :   -0.178358
   7 H :    0.139625
   8 H :    0.139576
   9 C :   -0.416995
  10 O :   -0.143987
  11 C :   -0.472104
  12 O :    0.016648
  13 O :    0.234541
  14 C :   -0.327634
  15 H :    0.113763
  16 H :    0.113763
  17 H :    0.118079

  Mayer bond orders larger than 0.100000
B(  0-C ,  1-C ) :   1.2598 B(  0-C ,  2-C ) :   1.2695 B(  0-C , 11-C ) :   1.0750
B(  0-C , 13-O ) :  -0.1230 B(  1-C ,  3-H ) :   0.9581 B(  1-C ,  5-C ) :   1.4906
B(  2-C ,  4-H ) :   0.9583 B(  2-C ,  6-C ) :   1.4825 B(  5-C ,  7-H ) :   0.9891
B(  5-C ,  9-C ) :   1.1774 B(  6-C ,  8-H ) :   0.9892 B(  6-C ,  9-C ) :   1.1765
B(  9-C , 10-O ) :   1.7208 B( 11-C , 12-O ) :   1.8989 B( 11-C , 13-O ) :   1.2011
B( 13-O , 14-C ) :   0.9129 B( 14-C , 15-H ) :   0.9701 B( 14-C , 16-H ) :   0.9701
B( 14-C , 17-H ) :   0.9651

Dispersion correction           -0.016061630
FINAL SINGLE POINT ENERGY      -534.511418515857

DIPOLE MOMENT
-------------
                                X             Y             Z
Electronic contribution:      0.00021       1.54494       2.91752
Nuclear contribution   :     -0.00015      -2.93350      -6.91004
                        -----------------------------------------
Total Dipole Moment    :      0.00006      -1.38856      -3.99252
                        -----------------------------------------
Magnitude (a.u.)       :      4.22710
Magnitude (Debye)      :     10.74442

Dispersion correction in the Hessian             ... done   (      0.4 sec)

VIBRATIONAL FREQUENCIES
-----------------------

Scaling factor for frequencies =  1.000000000  (already applied!)

   0:         0.00 cm**-1
   1:         0.00 cm**-1
   2:         0.00 cm**-1
   3:         0.00 cm**-1
   4:         0.00 cm**-1
   5:         0.00 cm**-1
   6:        68.93 cm**-1
   7:        84.61 cm**-1
   8:       139.50 cm**-1
   9:       151.49 cm**-1
  10:       167.89 cm**-1
  11:       270.82 cm**-1
  12:       321.77 cm**-1
  13:       338.31 cm**-1
  14:       428.73 cm**-1
  15:       437.47 cm**-1
  16:       505.26 cm**-1
  17:       505.70 cm**-1
  18:       629.44 cm**-1
  19:       639.77 cm**-1
  20:       725.38 cm**-1
  21:       799.00 cm**-1
  22:       809.78 cm**-1
  23:       816.44 cm**-1
  24:       848.35 cm**-1
  25:       865.89 cm**-1
  26:       977.12 cm**-1
  27:       985.98 cm**-1
  28:       994.02 cm**-1
  29:      1017.22 cm**-1
  30:      1107.79 cm**-1
  31:      1147.83 cm**-1
  32:      1160.58 cm**-1
  33:      1170.41 cm**-1
  34:      1209.71 cm**-1
  35:      1278.33 cm**-1
  36:      1305.69 cm**-1
  37:      1335.30 cm**-1
  38:      1424.43 cm**-1
  39:      1463.69 cm**-1
  40:      1464.13 cm**-1
  41:      1479.49 cm**-1
  42:      1494.30 cm**-1
  43:      1555.10 cm**-1
  44:      1569.87 cm**-1
  45:      1634.14 cm**-1
  46:      1710.62 cm**-1
  47:      3059.46 cm**-1
  48:      3135.12 cm**-1
  49:      3168.39 cm**-1
  50:      3169.77 cm**-1
  51:      3170.87 cm**-1
  52:      3190.86 cm**-1
  53:      3199.75 cm**-1

IR SPECTRUM
-----------

 Mode   freq       eps      Int      T**2         TX        TY        TZ
       cm**-1   L/(mol*cm) km/mol    a.u.
----------------------------------------------------------------------------
  6:     68.93   0.000026    0.13  0.000119  ( 0.010924  0.000006 -0.000013)
  7:     84.61   0.000583    2.95  0.002150  (-0.046369  0.000006 -0.000041)
  8:    139.50   0.002602   13.15  0.005821  (-0.076296 -0.000007  0.000001)
  9:    151.49   0.000436    2.20  0.000899  (-0.000005  0.005834  0.029403)
 10:    167.89   0.000402    2.03  0.000748  (-0.027350 -0.000006  0.000004)
 11:    270.82   0.000010    0.05  0.000012  ( 0.003392 -0.000004 -0.000009)
 12:    321.77   0.004596   23.23  0.004457  ( 0.000001  0.064278  0.018050)
 13:    338.31   0.006340   32.04  0.005848  (-0.000001  0.032348  0.069293)
 14:    428.73   0.000007    0.04  0.000005  ( 0.002284 -0.000010  0.000001)
 15:    437.47   0.002051   10.36  0.001463  ( 0.000002 -0.032873  0.019548)
 16:    505.26   0.000107    0.54  0.000066  ( 0.000139 -0.002877 -0.007596)
 17:    505.70   0.004698   23.74  0.002899  (-0.053846 -0.000012 -0.000030)
 18:    629.44   0.016739   84.59  0.008299  (-0.000004  0.010519  0.090490)
 19:    639.77   0.002286   11.55  0.001115  (-0.000001 -0.012282  0.031054)
 20:    725.38   0.007243   36.60  0.003116  (-0.055822 -0.000002  0.000001)
 21:    799.00   0.007132   36.04  0.002786  (-0.052779 -0.000005 -0.000002)
 22:    809.78   0.000427    2.16  0.000164  (-0.012825 -0.000002 -0.000003)
 23:    816.44   0.004031   20.37  0.001541  (-0.000018  0.021159  0.033060)
 24:    848.35   0.002485   12.56  0.000914  ( 0.000004 -0.014706 -0.026420)
 25:    865.89   0.016239   82.06  0.005852  (-0.076501 -0.000006 -0.000021)
 26:    977.12   0.000066    0.33  0.000021  ( 0.004594  0.000001  0.000011)
 27:    985.98   0.000167    0.84  0.000053  ( 0.007260 -0.000004  0.000006)
 28:    994.02   0.003087   15.60  0.000969  (-0.000005 -0.017706  0.025604)
 29:   1017.22   0.002541   12.84  0.000779  (-0.000001  0.026775 -0.007909)
 30:   1107.79   0.010809   54.63  0.003045  ( 0.000000 -0.046135 -0.030275)
 31:   1147.83   0.008840   44.67  0.002403  (-0.000006 -0.045030 -0.019384)
 32:   1160.58   0.150157  758.83  0.040375  ( 0.000001 -0.045250 -0.195773)
 33:   1170.41   0.000205    1.04  0.000055  ( 0.007391  0.000005  0.000004)
 34:   1209.71   0.038801  196.09  0.010009  (-0.000001 -0.047686 -0.087951)
 35:   1278.33   0.000653    3.30  0.000159  (-0.000000  0.010786  0.006562)
 36:   1305.69   0.216950  1096.37  0.051852  ( 0.000002 -0.073456 -0.215536)
 37:   1335.30   0.033201  167.78  0.007759  ( 0.000001 -0.041729 -0.077574)
 38:   1424.43   0.086529  437.28  0.018957  (-0.000007  0.014655  0.136901)
 39:   1463.69   0.052022  262.90  0.011091  (-0.000017  0.016323  0.104043)
 40:   1464.13   0.002810   14.20  0.000599  ( 0.024473  0.000010  0.000060)
 41:   1479.49   0.002804   14.17  0.000592  ( 0.000000 -0.019661  0.014317)
 42:   1494.30   0.011820   59.73  0.002468  (-0.000001 -0.017215  0.046606)
 43:   1555.10   0.048421  244.70  0.009717  (-0.000005  0.032706  0.092989)
 44:   1569.87   0.129961  656.77  0.025834  ( 0.000012  0.037918 -0.156193)
 45:   1634.14   0.237121  1198.31  0.045282  ( 0.000007  0.034007 -0.210060)
 46:   1710.62   0.110983  560.86  0.020246  (-0.000002  0.109881 -0.090401)
 47:   3059.46   0.012163   61.47  0.001241  ( 0.000002  0.005535  0.034785)
 48:   3135.12   0.006705   33.88  0.000667  ( 0.025834  0.000001 -0.000003)
 49:   3168.39   0.004552   23.01  0.000448  ( 0.000001 -0.014465 -0.015464)
 50:   3169.77   0.006501   32.85  0.000640  ( 0.000001  0.009877 -0.023291)
 51:   3170.87   0.004586   23.17  0.000451  ( 0.000001  0.021183 -0.001616)
 52:   3190.86   0.005582   28.21  0.000546  (-0.000000 -0.023116 -0.003403)
 53:   3199.75   0.002453   12.40  0.000239  ( 0.000001 -0.015271  0.002465)

--------------------------
THERMOCHEMISTRY AT 298.15K
--------------------------

Temperature         ... 298.15 K
Pressure            ... 1.00 atm
Total Mass          ... 151.14 AMU

Throughout the following assumptions are being made:
  (1) The electronic state is orbitally nondegenerate
  (2) There are no thermally accessible electronically excited states
  (3) Hindered rotations indicated by low frequency modes are not
      treated as such but are treated as vibrations and this may
      cause some error
  (4) All equations used are the standard statistical mechanics
      equations for an ideal gas
  (5) All vibrations are strictly harmonic

freq.      68.93  E(vib)   ...       0.50
freq.      84.61  E(vib)   ...       0.48
freq.     139.50  E(vib)   ...       0.42
freq.     151.49  E(vib)   ...       0.40
freq.     167.89  E(vib)   ...       0.38
freq.     270.82  E(vib)   ...       0.29
freq.     321.77  E(vib)   ...       0.25
freq.     338.31  E(vib)   ...       0.23
freq.     428.73  E(vib)   ...       0.18
freq.     437.47  E(vib)   ...       0.17
freq.     505.26  E(vib)   ...       0.14
freq.     505.70  E(vib)   ...       0.14
freq.     629.44  E(vib)   ...       0.09
freq.     639.77  E(vib)   ...       0.09
freq.     725.38  E(vib)   ...       0.06
freq.     799.00  E(vib)   ...       0.05
freq.     809.78  E(vib)   ...       0.05
freq.     816.44  E(vib)   ...       0.05
freq.     848.35  E(vib)   ...       0.04
freq.     865.89  E(vib)   ...       0.04
freq.     977.12  E(vib)   ...       0.03
freq.     985.98  E(vib)   ...       0.02
freq.     994.02  E(vib)   ...       0.02
freq.    1017.22  E(vib)   ...       0.02
freq.    1107.79  E(vib)   ...       0.02
freq.    1147.83  E(vib)   ...       0.01
freq.    1160.58  E(vib)   ...       0.01
freq.    1170.41  E(vib)   ...       0.01
freq.    1209.71  E(vib)   ...       0.01
freq.    1278.33  E(vib)   ...       0.01
freq.    1305.69  E(vib)   ...       0.01
freq.    1335.30  E(vib)   ...       0.01
freq.    1424.43  E(vib)   ...       0.00
freq.    1463.69  E(vib)   ...       0.00
freq.    1464.13  E(vib)   ...       0.00
freq.    1479.49  E(vib)   ...       0.00
freq.    1494.30  E(vib)   ...       0.00
freq.    1555.10  E(vib)   ...       0.00
freq.    1569.87  E(vib)   ...       0.00
freq.    1634.14  E(vib)   ...       0.00
freq.    1710.62  E(vib)   ...       0.00
freq.    3059.46  E(vib)   ...       0.00
freq.    3135.12  E(vib)   ...       0.00
freq.    3168.39  E(vib)   ...       0.00
freq.    3169.77  E(vib)   ...       0.00
freq.    3170.87  E(vib)   ...       0.00
freq.    3190.86  E(vib)   ...       0.00
freq.    3199.75  E(vib)   ...       0.00

------------
INNER ENERGY
------------

The inner energy is: U= E(el) + E(ZPE) + E(vib) + E(rot) + E(trans)
    E(el)   - is the total energy from the electronic structure calculation
              = E(kin-el) + E(nuc-el) + E(el-el) + E(nuc-nuc)
    E(ZPE)  - the the zero temperature vibrational energy from the frequency calculation
    E(vib)  - the the finite temperature correction to E(ZPE) due to population
              of excited vibrational states
    E(rot)  - is the rotational thermal energy
    E(trans)- is the translational thermal energy

Summary of contributions to the inner energy U:
Electronic energy                ...   -534.51141852 Eh
Zero point energy                ...      0.13471830 Eh      84.54 kcal/mol
Thermal vibrational correction   ...      0.00676546 Eh       4.25 kcal/mol
Thermal rotational correction    ...      0.00141627 Eh       0.89 kcal/mol
Thermal translational correction ...      0.00141627 Eh       0.89 kcal/mol
-----------------------------------------------------------------------
Total thermal energy                   -534.36710221 Eh

Summary of corrections to the electronic energy:
(perhaps to be used in another calculation)
Total thermal correction                  0.00959800 Eh       6.02 kcal/mol
Non-thermal (ZPE) correction              0.13471830 Eh      84.54 kcal/mol
-----------------------------------------------------------------------
Total correction                          0.14431631 Eh      90.56 kcal/mol

--------
ENTHALPY
--------

The enthalpy is H = U + kB*T
                kB is Boltzmann's constant
Total free energy                 ...   -534.36710221 Eh
Thermal Enthalpy correction       ...      0.00094421 Eh       0.59 kcal/mol
-----------------------------------------------------------------------
Total Enthalpy                    ...   -534.36615800 Eh

Note: Only C1 symmetry has been detected, increase convergence thresholds
      if your molecule has a higher symmetry. Symmetry factor of 1.0 is
      used for the rotational entropy correction.

Note: Rotational entropy computed according to Herzberg
Infrared and Raman Spectra, Chapter V,1, Van Nostrand Reinhold, 1945
Point Group:  C1, Symmetry Number:   1
Rotational constants in cm-1:     0.116843     0.019734     0.016936

Vibrational entropy computed according to the QRRHO of S. Grimme
Chem.Eur.J. 2012 18 9955

-------
ENTROPY
-------

The entropy contributions are T*S = T*(S(el)+S(vib)+S(rot)+S(trans))
     S(el)   - electronic entropy
     S(vib)  - vibrational entropy
     S(rot)  - rotational entropy
     S(trans)- translational entropy
The entropies will be listed as multiplied by the temperature to get
units of energy

Electronic entropy                ...      0.00000000 Eh      0.00 kcal/mol
Vibrational entropy               ...      0.01160390 Eh      7.28 kcal/mol
Rotational entropy                ...      0.01430284 Eh      8.98 kcal/mol
Translational entropy             ...      0.01945622 Eh     12.21 kcal/mol
-----------------------------------------------------------------------
Final entropy term                ...      0.04536296 Eh     28.47 kcal/mol

In case the symmetry of your molecule has not been determined correctly
or in case you have a reason to use a different symmetry number we print
out the resulting rotational entropy values for sn=1,12 :
 --------------------------------------------------------
|  sn= 1 | S(rot)=       0.01430284 Eh      8.98 kcal/mol|
|  sn= 2 | S(rot)=       0.01364838 Eh      8.56 kcal/mol|
|  sn= 3 | S(rot)=       0.01326555 Eh      8.32 kcal/mol|
|  sn= 4 | S(rot)=       0.01299393 Eh      8.15 kcal/mol|
|  sn= 5 | S(rot)=       0.01278324 Eh      8.02 kcal/mol|
|  sn= 6 | S(rot)=       0.01261109 Eh      7.91 kcal/mol|
|  sn= 7 | S(rot)=       0.01246555 Eh      7.82 kcal/mol|
|  sn= 8 | S(rot)=       0.01233947 Eh      7.74 kcal/mol|
|  sn= 9 | S(rot)=       0.01222826 Eh      7.67 kcal/mol|
|  sn=10 | S(rot)=       0.01212878 Eh      7.61 kcal/mol|
|  sn=11 | S(rot)=       0.01203879 Eh      7.55 kcal/mol|
|  sn=12 | S(rot)=       0.01195664 Eh      7.50 kcal/mol|
 --------------------------------------------------------

                             ****ORCA TERMINATED NORMALLY****
TOTAL RUN TIME: 0 days 0 hours 6 minutes 12 seconds 738 msec
