                         Program Version 5.0.4 -  RELEASE  -
|  1> %pal nprocs 24 end
|  2> %maxcore 3500
|  3> ! PBE0 D3BJ def2-TZVP TightSCF OPT FREQ TightOpt
|  4> ! CPCM(dmso)
|  5> %scf
|  6> MaxIter 800
|  7> end
|  8> %geom
|  9> MaxIter 800
| 10> MaxStep 0.2
| 11> end
| 12> *xyz 0 1
| 13>
| 14> C       0.00006900     -0.58276200     -1.58125600
| 15> C       0.00002700      0.65273000     -0.93661800
| 16> C       0.00006100     -1.74773800     -0.81252900
| 17> H       0.00003200      1.55879700     -1.53016100
| 18> H       0.00009100     -2.71441400     -1.29960200
| 19> C      -0.00001600      0.73056100      0.44119100
| 20> C       0.00001700     -1.68184700      0.56605600
| 21> H      -0.00004700      1.69382300      0.94080800
| 22> H       0.00001200     -2.58392200      1.16638800
| 23> C      -0.00002200     -0.43983800      1.19883600
| 24> O      -0.00006500     -0.42387900      2.54515300
| 25> H      -0.00008800      0.48696000      2.86431700
| 26> C       0.00012000     -0.60727000     -3.05524300
| 27> O       0.00002100      0.38148000     -3.75747300
| 28> O       0.00004000     -1.84487800     -3.55160800
| 29> C      -0.00004700     -1.95071900     -4.97459800
| 30> H      -0.89019700     -1.47916200     -5.39252100
| 31> H       0.89009500     -1.47923500     -5.39262300
| 32> H      -0.00010300     -3.01615000     -5.19112000
| 33> *
| 34>
| 35>                          ****END OF INPUT****
 Total Charge           Charge          ....    0
 Multiplicity           Mult            ....    1
 Number of Electrons    NEL             ....   80
Dispersion correction           -0.016654053
FINAL SINGLE POINT ENERGY      -534.988029688828
Dispersion correction            ... done
Dispersion correction           -0.016653385
FINAL SINGLE POINT ENERGY      -534.988030193688
Dispersion correction            ... done
Dispersion correction           -0.016653075
FINAL SINGLE POINT ENERGY      -534.988030175103
Dispersion correction            ... done
Dispersion correction           -0.016653374
FINAL SINGLE POINT ENERGY      -534.988030447270
Dispersion correction            ... done
                    ***********************HURRAY********************

CARTESIAN COORDINATES (ANGSTROEM)
---------------------------------
  C     -0.000164   -0.582234   -1.581445
  C     -0.000103    0.653077   -0.936253
  C     -0.000158   -1.747688   -0.812783
  H     -0.000096    1.558926   -1.530098
  H     -0.000187   -2.713912   -1.300595
  C      0.000002    0.730628    0.441755
  C     -0.000054   -1.681904    0.565851
  H      0.000080    1.693888    0.941256
  H     -0.000014   -2.583339    1.167074
  C      0.000034   -0.440014    1.199142
  O      0.000173   -0.424351    2.545473
  H      0.000237    0.486591    2.864223
  C     -0.000158   -0.607033   -3.055757
  O     -0.000072    0.381404   -3.758206
  O     -0.000067   -1.845068   -3.551603
  C      0.000104   -1.951066   -4.974616
  H     -0.889932   -1.479484   -5.392609
  H      0.890214   -1.479434   -5.392398
  H      0.000160   -3.016450   -5.191013

 Multiplicity           Mult            ....    1
 Number of Electrons    NEL             ....   80
 Basis Dimension        Dim             ....  389

ORBITAL ENERGIES
----------------

  NO   OCC          E(Eh)            E(eV)
   0   2.0000     -19.257117      -524.0128
   1   2.0000     -19.247515      -523.7515
   2   2.0000     -19.194156      -522.2995
   3   2.0000     -10.353672      -281.7377
   4   2.0000     -10.302026      -280.3324
   5   2.0000     -10.267847      -279.4023
   6   2.0000     -10.241188      -278.6769
   7   2.0000     -10.240850      -278.6677
   8   2.0000     -10.239870      -278.6410
   9   2.0000     -10.232667      -278.4450
  10   2.0000     -10.230502      -278.3861
  11   2.0000      -1.145503       -31.1707
  12   2.0000      -1.107654       -30.1408
  13   2.0000      -1.050727       -28.5917
  14   2.0000      -0.896733       -24.4014
  15   2.0000      -0.800267       -21.7764
  16   2.0000      -0.786931       -21.4135
  17   2.0000      -0.744045       -20.2465
  18   2.0000      -0.666892       -18.1470
  19   2.0000      -0.642459       -17.4822
  20   2.0000      -0.591215       -16.0878
  21   2.0000      -0.574479       -15.6324
  22   2.0000      -0.557697       -15.1757
  23   2.0000      -0.509773       -13.8716
  24   2.0000      -0.505979       -13.7684
  25   2.0000      -0.489946       -13.3321
  26   2.0000      -0.469004       -12.7623
  27   2.0000      -0.449649       -12.2356
  28   2.0000      -0.446017       -12.1367
  29   2.0000      -0.442568       -12.0429
  30   2.0000      -0.422621       -11.5001
  31   2.0000      -0.419418       -11.4129
  32   2.0000      -0.397525       -10.8172
  33   2.0000      -0.376058       -10.2331
  34   2.0000      -0.363349        -9.8872
  35   2.0000      -0.357164        -9.7189
  36   2.0000      -0.325970        -8.8701
  37   2.0000      -0.302539        -8.2325
  38   2.0000      -0.282170        -7.6782
  39   2.0000      -0.252169        -6.8619
  40   0.0000      -0.042947        -1.1686
  41   0.0000      -0.017407        -0.4737
  42   0.0000       0.060817         1.6549
  43   0.0000       0.060887         1.6568
  44   0.0000       0.063385         1.7248

MULLIKEN ATOMIC CHARGES
-----------------------
   0 C :    0.113474
   1 C :   -0.216215
   2 C :   -0.220504
   3 H :    0.155736
   4 H :    0.156693
   5 C :   -0.221877
   6 C :   -0.228615
   7 H :    0.163646
   8 H :    0.149832
   9 C :    0.282964
  10 O :   -0.414480
  11 H :    0.372953
  12 C :    0.363083
  13 O :   -0.427261
  14 O :   -0.231677
  15 C :   -0.256128
  16 H :    0.149745
  17 H :    0.149746
  18 H :    0.158884
Sum of atomic charges:    0.0000000

LOEWDIN ATOMIC CHARGES
----------------------
   0 C :   -0.151697
   1 C :   -0.085805
   2 C :   -0.091692
   3 H :    0.161809
   4 H :    0.161087
   5 C :   -0.131298
   6 C :   -0.123090
   7 H :    0.160821
   8 H :    0.159219
   9 C :   -0.277713
  10 O :    0.101658
  11 H :    0.212805
  12 C :   -0.458636
  13 O :    0.058730
  14 O :    0.256943
  15 C :   -0.310016
  16 H :    0.117855
  17 H :    0.117855
  18 H :    0.121165

  Mayer bond orders larger than 0.100000
B(  0-C ,  1-C ) :   1.3346 B(  0-C ,  2-C ) :   1.3353 B(  0-C , 12-C ) :   1.0046
B(  0-C , 14-O ) :  -0.1144 B(  1-C ,  3-H ) :   0.9520 B(  1-C ,  5-C ) :   1.4250
B(  2-C ,  4-H ) :   0.9703 B(  2-C ,  6-C ) :   1.4708 B(  5-C ,  7-H ) :   0.9610
B(  5-C ,  9-C ) :   1.3358 B(  6-C ,  8-H ) :   0.9808 B(  6-C ,  9-C ) :   1.3481
B(  9-C , 10-O ) :   1.1587 B( 10-O , 11-H ) :   0.8463 B( 12-C , 13-O ) :   1.9429
B( 12-C , 14-O ) :   1.2377 B( 14-O , 15-C ) :   0.8977 B( 15-C , 16-H ) :   0.9680
B( 15-C , 17-H ) :   0.9680 B( 15-C , 18-H ) :   0.9638

Dispersion correction           -0.016653532
FINAL SINGLE POINT ENERGY      -534.988030476464

DIPOLE MOMENT
-------------
                                X             Y             Z
Electronic contribution:     -0.00053       1.66783       4.00745
Nuclear contribution   :      0.00068      -1.86652      -3.11923
                        -----------------------------------------
Total Dipole Moment    :      0.00014      -0.19870       0.88822
                        -----------------------------------------
Magnitude (a.u.)       :      0.91017
Magnitude (Debye)      :      2.31347

Dispersion correction in the Hessian             ... done   (      0.3 sec)

VIBRATIONAL FREQUENCIES
-----------------------

Scaling factor for frequencies =  1.000000000  (already applied!)

   0:         0.00 cm**-1
   1:         0.00 cm**-1
   2:         0.00 cm**-1
   3:         0.00 cm**-1
   4:         0.00 cm**-1
   5:         0.00 cm**-1
   6:        52.96 cm**-1
   7:        87.53 cm**-1
   8:       149.46 cm**-1
   9:       152.32 cm**-1
  10:       170.37 cm**-1
  11:       308.64 cm**-1
  12:       315.50 cm**-1
  13:       334.86 cm**-1
  14:       404.97 cm**-1
  15:       410.71 cm**-1
  16:       427.40 cm**-1
  17:       499.69 cm**-1
  18:       520.27 cm**-1
  19:       630.27 cm**-1
  20:       648.77 cm**-1
  21:       716.96 cm**-1
  22:       795.40 cm**-1
  23:       820.93 cm**-1
  24:       833.93 cm**-1
  25:       869.41 cm**-1
  26:       873.55 cm**-1
  27:       985.37 cm**-1
  28:       987.23 cm**-1
  29:      1010.99 cm**-1
  30:      1033.21 cm**-1
  31:      1126.24 cm**-1
  32:      1154.67 cm**-1
  33:      1171.25 cm**-1
  34:      1179.81 cm**-1
  35:      1200.97 cm**-1
  36:      1218.21 cm**-1
  37:      1310.73 cm**-1
  38:      1318.01 cm**-1
  39:      1341.81 cm**-1
  40:      1400.76 cm**-1
  41:      1465.10 cm**-1
  42:      1466.35 cm**-1
  43:      1476.25 cm**-1
  44:      1478.55 cm**-1
  45:      1557.82 cm**-1
  46:      1648.37 cm**-1
  47:      1666.31 cm**-1
  48:      1750.19 cm**-1
  49:      3068.08 cm**-1
  50:      3148.68 cm**-1
  51:      3183.92 cm**-1
  52:      3192.78 cm**-1
  53:      3208.64 cm**-1
  54:      3219.06 cm**-1
  55:      3228.23 cm**-1
  56:      3809.79 cm**-1

IR SPECTRUM
-----------

 Mode   freq       eps      Int      T**2         TX        TY        TZ
       cm**-1   L/(mol*cm) km/mol    a.u.
----------------------------------------------------------------------------
  6:     52.96   0.001352    6.83  0.007969  (-0.089268  0.000029  0.000011)
  7:     87.53   0.000104    0.53  0.000372  (-0.019280  0.000010 -0.000001)
  8:    149.46   0.000911    4.61  0.001903  (-0.000046 -0.026742  0.034460)
  9:    152.32   0.000547    2.77  0.001121  ( 0.033488 -0.000049  0.000059)
 10:    170.37   0.000492    2.49  0.000901  ( 0.030013 -0.000019  0.000004)
 11:    308.64   0.000520    2.63  0.000526  (-0.022933 -0.000031 -0.000039)
 12:    315.50   0.005625   28.43  0.005564  ( 0.000014 -0.054557 -0.050864)
 13:    334.86   0.001635    8.26  0.001523  (-0.000005  0.023080  0.031475)
 14:    404.97   0.031832  160.87  0.024529  (-0.156619  0.000001  0.000022)
 15:    410.71   0.000279    1.41  0.000212  ( 0.000144  0.002079 -0.014397)
 16:    427.40   0.004047   20.45  0.002955  ( 0.054357 -0.000003 -0.000017)
 17:    499.69   0.002417   12.21  0.001509  ( 0.000008  0.006373 -0.038322)
 18:    520.27   0.003481   17.59  0.002088  ( 0.045693 -0.000009 -0.000015)
 19:    630.27   0.007772   39.28  0.003848  ( 0.000014  0.003859  0.061915)
 20:    648.77   0.000621    3.14  0.000299  ( 0.000002  0.013270 -0.011070)
 21:    716.96   0.005857   29.60  0.002549  (-0.050492  0.000002  0.000012)
 22:    795.40   0.013492   68.18  0.005293  (-0.072755  0.000008 -0.000014)
 23:    820.93   0.001031    5.21  0.000392  ( 0.000001  0.014644  0.013319)
 24:    833.93   0.000063    0.32  0.000024  ( 0.004868 -0.000008  0.000002)
 25:    869.41   0.005104   25.79  0.001832  ( 0.000021 -0.012363  0.040979)
 26:    873.55   0.009900   50.03  0.003537  (-0.059471 -0.000003  0.000028)
 27:    985.37   0.000037    0.18  0.000012  (-0.003403 -0.000001  0.000006)
 28:    987.23   0.000018    0.09  0.000006  ( 0.002407  0.000005  0.000001)
 29:   1010.99   0.002592   13.10  0.000800  (-0.000003 -0.021760  0.018069)
 30:   1033.21   0.003219   16.27  0.000972  ( 0.000003 -0.001602 -0.031139)
 31:   1126.24   0.007966   40.26  0.002207  (-0.000002 -0.037333 -0.028523)
 32:   1154.67   0.012527   63.31  0.003385  ( 0.000010 -0.042797 -0.039420)
 33:   1171.25   0.000199    1.00  0.000053  (-0.007277  0.000001 -0.000007)
 34:   1179.81   0.067673  341.99  0.017900  (-0.000001 -0.032955 -0.129668)
 35:   1200.97   0.052929  267.48  0.013753  ( 0.000008  0.000823  0.117272)
 36:   1218.21   0.020139  101.77  0.005159  ( 0.000006 -0.045626 -0.055472)
 37:   1310.73   0.176586  892.39  0.042042  (-0.000001 -0.072182 -0.191917)
 38:   1318.01   0.007314   36.96  0.001732  ( 0.000010 -0.032654  0.025795)
 39:   1341.81   0.036879  186.37  0.008577  (-0.000000  0.048350  0.078989)
 40:   1400.76   0.007489   37.85  0.001669  (-0.000002  0.004671 -0.040579)
 41:   1465.10   0.003255   16.45  0.000693  ( 0.026330  0.000003  0.000014)
 42:   1466.35   0.018655   94.28  0.003970  (-0.000006  0.016976  0.060679)
 43:   1476.25   0.002767   13.98  0.000585  (-0.000000 -0.023143  0.007016)
 44:   1478.55   0.017958   90.75  0.003790  (-0.000003 -0.007459 -0.061111)
 45:   1557.82   0.013267   67.05  0.002658  (-0.000008  0.016326 -0.048899)
 46:   1648.37   0.006058   30.62  0.001147  (-0.000002  0.015476 -0.030123)
 47:   1666.31   0.079532  401.92  0.014895  ( 0.000007 -0.003427  0.121996)
 48:   1750.19   0.123704  625.15  0.022057  ( 0.000001 -0.118040  0.090129)
 49:   3068.08   0.007685   38.84  0.000782  ( 0.000004 -0.005095 -0.027490)
 50:   3148.68   0.004622   23.36  0.000458  ( 0.021402  0.000000  0.000005)
 51:   3183.92   0.002860   14.45  0.000280  ( 0.000001 -0.016658 -0.001675)
 52:   3192.78   0.001202    6.08  0.000118  (-0.000001 -0.002442 -0.010563)
 53:   3208.64   0.000662    3.34  0.000064  ( 0.000001 -0.001878  0.007799)
 54:   3219.06   0.000353    1.78  0.000034  (-0.000000  0.004364  0.003897)
 55:   3228.23   0.000262    1.32  0.000025  ( 0.000001  0.003729 -0.003381)
 56:   3809.79   0.046309  234.03  0.003793  ( 0.000005  0.040036  0.046800)

--------------------------
THERMOCHEMISTRY AT 298.15K
--------------------------

Temperature         ... 298.15 K
Pressure            ... 1.00 atm
Total Mass          ... 152.15 AMU

Throughout the following assumptions are being made:
  (1) The electronic state is orbitally nondegenerate
  (2) There are no thermally accessible electronically excited states
  (3) Hindered rotations indicated by low frequency modes are not
      treated as such but are treated as vibrations and this may
      cause some error
  (4) All equations used are the standard statistical mechanics
      equations for an ideal gas
  (5) All vibrations are strictly harmonic

freq.      52.96  E(vib)   ...       0.52
freq.      87.53  E(vib)   ...       0.48
freq.     149.46  E(vib)   ...       0.40
freq.     152.32  E(vib)   ...       0.40
freq.     170.37  E(vib)   ...       0.38
freq.     308.64  E(vib)   ...       0.26
freq.     315.50  E(vib)   ...       0.25
freq.     334.86  E(vib)   ...       0.24
freq.     404.97  E(vib)   ...       0.19
freq.     410.71  E(vib)   ...       0.19
freq.     427.40  E(vib)   ...       0.18
freq.     499.69  E(vib)   ...       0.14
freq.     520.27  E(vib)   ...       0.13
freq.     630.27  E(vib)   ...       0.09
freq.     648.77  E(vib)   ...       0.08
freq.     716.96  E(vib)   ...       0.07
freq.     795.40  E(vib)   ...       0.05
freq.     820.93  E(vib)   ...       0.05
freq.     833.93  E(vib)   ...       0.04
freq.     869.41  E(vib)   ...       0.04
freq.     873.55  E(vib)   ...       0.04
freq.     985.37  E(vib)   ...       0.02
freq.     987.23  E(vib)   ...       0.02
freq.    1010.99  E(vib)   ...       0.02
freq.    1033.21  E(vib)   ...       0.02
freq.    1126.24  E(vib)   ...       0.01
freq.    1154.67  E(vib)   ...       0.01
freq.    1171.25  E(vib)   ...       0.01
freq.    1179.81  E(vib)   ...       0.01
freq.    1200.97  E(vib)   ...       0.01
freq.    1218.21  E(vib)   ...       0.01
freq.    1310.73  E(vib)   ...       0.01
freq.    1318.01  E(vib)   ...       0.01
freq.    1341.81  E(vib)   ...       0.01
freq.    1400.76  E(vib)   ...       0.00
freq.    1465.10  E(vib)   ...       0.00
freq.    1466.35  E(vib)   ...       0.00
freq.    1476.25  E(vib)   ...       0.00
freq.    1478.55  E(vib)   ...       0.00
freq.    1557.82  E(vib)   ...       0.00
freq.    1648.37  E(vib)   ...       0.00
freq.    1666.31  E(vib)   ...       0.00
freq.    1750.19  E(vib)   ...       0.00
freq.    3068.08  E(vib)   ...       0.00
freq.    3148.68  E(vib)   ...       0.00
freq.    3183.92  E(vib)   ...       0.00
freq.    3192.78  E(vib)   ...       0.00
freq.    3208.64  E(vib)   ...       0.00
freq.    3219.06  E(vib)   ...       0.00
freq.    3228.23  E(vib)   ...       0.00
freq.    3809.79  E(vib)   ...       0.00

------------
INNER ENERGY
------------

The inner energy is: U= E(el) + E(ZPE) + E(vib) + E(rot) + E(trans)
    E(el)   - is the total energy from the electronic structure calculation
              = E(kin-el) + E(nuc-el) + E(el-el) + E(nuc-nuc)
    E(ZPE)  - the the zero temperature vibrational energy from the frequency calculation
    E(vib)  - the the finite temperature correction to E(ZPE) due to population
              of excited vibrational states
    E(rot)  - is the rotational thermal energy
    E(trans)- is the translational thermal energy

Summary of contributions to the inner energy U:
Electronic energy                ...   -534.98803048 Eh
Zero point energy                ...      0.14815215 Eh      92.97 kcal/mol
Thermal vibrational correction   ...      0.00704491 Eh       4.42 kcal/mol
Thermal rotational correction    ...      0.00141627 Eh       0.89 kcal/mol
Thermal translational correction ...      0.00141627 Eh       0.89 kcal/mol
-----------------------------------------------------------------------
Total thermal energy                   -534.83000087 Eh

Summary of corrections to the electronic energy:
(perhaps to be used in another calculation)
Total thermal correction                  0.00987745 Eh       6.20 kcal/mol
Non-thermal (ZPE) correction              0.14815215 Eh      92.97 kcal/mol
-----------------------------------------------------------------------
Total correction                          0.15802960 Eh      99.16 kcal/mol

--------
ENTHALPY
--------

The enthalpy is H = U + kB*T
                kB is Boltzmann's constant
Total free energy                 ...   -534.83000087 Eh
Thermal Enthalpy correction       ...      0.00094421 Eh       0.59 kcal/mol
-----------------------------------------------------------------------
Total Enthalpy                    ...   -534.82905666 Eh

Note: Only C1 symmetry has been detected, increase convergence thresholds
      if your molecule has a higher symmetry. Symmetry factor of 1.0 is
      used for the rotational entropy correction.

Note: Rotational entropy computed according to Herzberg
Infrared and Raman Spectra, Chapter V,1, Van Nostrand Reinhold, 1945
Point Group:  C1, Symmetry Number:   1
Rotational constants in cm-1:     0.116406     0.019442     0.016712

Vibrational entropy computed according to the QRRHO of S. Grimme
Chem.Eur.J. 2012 18 9955

-------
ENTROPY
-------

The entropy contributions are T*S = T*(S(el)+S(vib)+S(rot)+S(trans))
     S(el)   - electronic entropy
     S(vib)  - vibrational entropy
     S(rot)  - rotational entropy
     S(trans)- translational entropy
The entropies will be listed as multiplied by the temperature to get
units of energy

Electronic entropy                ...      0.00000000 Eh      0.00 kcal/mol
Vibrational entropy               ...      0.01199325 Eh      7.53 kcal/mol
Rotational entropy                ...      0.01431794 Eh      8.98 kcal/mol
Translational entropy             ...      0.01946564 Eh     12.21 kcal/mol
-----------------------------------------------------------------------
Final entropy term                ...      0.04577683 Eh     28.73 kcal/mol

In case the symmetry of your molecule has not been determined correctly
or in case you have a reason to use a different symmetry number we print
out the resulting rotational entropy values for sn=1,12 :
 --------------------------------------------------------
|  sn= 1 | S(rot)=       0.01431794 Eh      8.98 kcal/mol|
|  sn= 2 | S(rot)=       0.01366349 Eh      8.57 kcal/mol|
|  sn= 3 | S(rot)=       0.01328065 Eh      8.33 kcal/mol|
|  sn= 4 | S(rot)=       0.01300903 Eh      8.16 kcal/mol|
|  sn= 5 | S(rot)=       0.01279834 Eh      8.03 kcal/mol|
|  sn= 6 | S(rot)=       0.01262620 Eh      7.92 kcal/mol|
|  sn= 7 | S(rot)=       0.01248065 Eh      7.83 kcal/mol|
|  sn= 8 | S(rot)=       0.01235457 Eh      7.75 kcal/mol|
|  sn= 9 | S(rot)=       0.01224337 Eh      7.68 kcal/mol|
|  sn=10 | S(rot)=       0.01214389 Eh      7.62 kcal/mol|
|  sn=11 | S(rot)=       0.01205390 Eh      7.56 kcal/mol|
|  sn=12 | S(rot)=       0.01197174 Eh      7.51 kcal/mol|

                             ****ORCA TERMINATED NORMALLY****
TOTAL RUN TIME: 0 days 0 hours 6 minutes 58 seconds 295 msec
