                         Program Version 5.0.4 -  RELEASE  -
|  1> %pal nprocs 24 end
|  2> %maxcore 3500
|  3> ! PBE0 D3BJ def2-TZVP TightSCF OPT FREQ TightOpt
|  4> ! CPCM(dmso)
|  5> %scf
|  6> MaxIter 800
|  7> end
|  8> %geom
|  9> MaxIter 800
| 10> MaxStep 0.2
| 11> end
| 12> *xyz 0 1
| 13>
| 14> C      -0.00000000     -0.54506500     -1.52726800
| 15> C      -0.00000000      0.68688900     -0.90706100
| 16> C      -0.00000000     -1.72460700     -0.80971400
| 17> H       0.00000000      1.59457700     -1.49849500
| 18> H       0.00000000     -2.67616200     -1.32777000
| 19> C       0.00000000      0.73840400      0.47933400
| 20> C      -0.00000000     -1.66768700      0.57544100
| 21> H       0.00000000      1.69770400      0.98657800
| 22> H      -0.00000000     -2.57937400      1.16124100
| 23> C       0.00000000     -0.43672200      1.22340300
| 24> O       0.00000000     -0.43693500      2.58014300
| 25> H      -0.00000000      0.47075100      2.90506700
| 26> F       0.00000000     -0.59813100     -2.87601300
| 27> *
| 28>
| 29>                          ****END OF INPUT****
 Total Charge           Charge          ....    0
 Multiplicity           Mult            ....    1
 Number of Electrons    NEL             ....   58
Dispersion correction           -0.010633623
FINAL SINGLE POINT ENERGY      -406.440357685570
Dispersion correction            ... done
Dispersion correction           -0.010633582
FINAL SINGLE POINT ENERGY      -406.440358077822
Dispersion correction            ... done
Dispersion correction           -0.010633620
FINAL SINGLE POINT ENERGY      -406.440358363331
Dispersion correction            ... done
                    ***********************HURRAY********************

CARTESIAN COORDINATES (ANGSTROEM)
---------------------------------
  C     -0.000000   -0.544970   -1.527371
  C     -0.000000    0.686869   -0.906882
  C     -0.000000   -1.724780   -0.809639
  H      0.000000    1.594391   -1.498491
  H      0.000000   -2.675659   -1.328842
  C      0.000000    0.738404    0.479743
  C      0.000000   -1.667981    0.575436
  H      0.000000    1.697793    0.986659
  H     -0.000000   -2.578911    1.162296
  C      0.000000   -0.436925    1.223467
  O      0.000000   -0.437156    2.580377
  H     -0.000000    0.470880    2.904213
  F     -0.000000   -0.598313   -2.876081

 Multiplicity           Mult            ....    1
 Number of Electrons    NEL             ....   58
 Basis Dimension        Dim             ....  278

ORBITAL ENERGIES
----------------

  NO   OCC          E(Eh)            E(eV)
   0   2.0000     -24.782593      -674.3686
   1   2.0000     -19.238274      -523.5001
   2   2.0000     -10.304717      -280.4056
   3   2.0000     -10.291022      -280.0329
   4   2.0000     -10.236029      -278.5365
   5   2.0000     -10.235736      -278.5285
   6   2.0000     -10.233577      -278.4698
   7   2.0000     -10.231663      -278.4177
   8   2.0000      -1.260153       -34.2905
   9   2.0000      -1.096545       -29.8385
  10   2.0000      -0.892612       -24.2892
  11   2.0000      -0.787597       -21.4316
  12   2.0000      -0.768732       -20.9183
  13   2.0000      -0.661451       -17.9990
  14   2.0000      -0.638386       -17.3714
  15   2.0000      -0.572758       -15.5855
  16   2.0000      -0.564445       -15.3593
  17   2.0000      -0.521570       -14.1926
  18   2.0000      -0.491207       -13.3664
  19   2.0000      -0.466148       -12.6845
  20   2.0000      -0.451454       -12.2847
  21   2.0000      -0.446890       -12.1605
  22   2.0000      -0.434871       -11.8335
  23   2.0000      -0.423675       -11.5288
  24   2.0000      -0.393284       -10.7018
  25   2.0000      -0.358749        -9.7621
  26   2.0000      -0.355671        -9.6783
  27   2.0000      -0.281288        -7.6542
  28   2.0000      -0.238779        -6.4975
  29   0.0000      -0.019642        -0.5345
  30   0.0000       0.009930         0.2702
  31   0.0000       0.060706         1.6519
  32   0.0000       0.072456         1.9716
  33   0.0000       0.097928         2.6648

MULLIKEN ATOMIC CHARGES
-----------------------
   0 C :    0.278937
   1 C :   -0.218796
   2 C :   -0.207318
   3 H :    0.163571
   4 H :    0.161032
   5 C :   -0.233416
   6 C :   -0.235406
   7 H :    0.165554
   8 H :    0.153222
   9 C :    0.258501
  10 O :   -0.435406
  11 H :    0.368294
  12 F :   -0.218768
Sum of atomic charges:   -0.0000000

LOEWDIN ATOMIC CHARGES
----------------------
   0 C :   -0.287696
   1 C :   -0.125300
   2 C :   -0.124580
   3 H :    0.162220
   4 H :    0.162143
   5 C :   -0.132330
   6 C :   -0.123015
   7 H :    0.160400
   8 H :    0.158911
   9 C :   -0.296067
  10 O :    0.075843
  11 H :    0.207797
  12 F :    0.161674

  Mayer bond orders larger than 0.100000
B(  0-C ,  1-C ) :   1.4141 B(  0-C ,  2-C ) :   1.4041 B(  0-C , 12-F ) :   1.0093
B(  1-C ,  3-H ) :   0.9596 B(  1-C ,  5-C ) :   1.3406 B(  2-C ,  4-H ) :   0.9709
B(  2-C ,  6-C ) :   1.3869 B(  5-C ,  7-H ) :   0.9506 B(  5-C ,  9-C ) :   1.3678
B(  6-C ,  8-H ) :   0.9640 B(  6-C ,  9-C ) :   1.3812 B(  9-C , 10-O ) :   1.1230
B( 10-O , 11-H ) :   0.8517

Dispersion correction           -0.010633668
FINAL SINGLE POINT ENERGY      -406.440358410939

DIPOLE MOMENT
-------------
                                X             Y             Z
Electronic contribution:      0.00000      -0.25538      -4.76261
Nuclear contribution   :      0.00000       1.01247       5.55663
                        -----------------------------------------
Total Dipole Moment    :      0.00000       0.75708       0.79403
                        -----------------------------------------
Magnitude (a.u.)       :      1.09711
Magnitude (Debye)      :      2.78864

Dispersion correction in the Hessian             ... done   (      0.2 sec)

VIBRATIONAL FREQUENCIES
-----------------------

Scaling factor for frequencies =  1.000000000  (already applied!)

   0:         0.00 cm**-1
   1:         0.00 cm**-1
   2:         0.00 cm**-1
   3:         0.00 cm**-1
   4:         0.00 cm**-1
   5:         0.00 cm**-1
   6:       157.51 cm**-1
   7:       344.62 cm**-1
   8:       350.63 cm**-1
   9:       375.46 cm**-1
  10:       433.31 cm**-1
  11:       451.39 cm**-1
  12:       466.02 cm**-1
  13:       522.75 cm**-1
  14:       651.26 cm**-1
  15:       724.16 cm**-1
  16:       763.27 cm**-1
  17:       814.05 cm**-1
  18:       853.78 cm**-1
  19:       874.70 cm**-1
  20:       943.79 cm**-1
  21:       962.80 cm**-1
  22:      1028.61 cm**-1
  23:      1109.12 cm**-1
  24:      1165.38 cm**-1
  25:      1197.47 cm**-1
  26:      1241.20 cm**-1
  27:      1307.09 cm**-1
  28:      1321.53 cm**-1
  29:      1381.34 cm**-1
  30:      1480.21 cm**-1
  31:      1547.05 cm**-1
  32:      1669.11 cm**-1
  33:      1678.63 cm**-1
  34:      3193.52 cm**-1
  35:      3206.79 cm**-1
  36:      3218.47 cm**-1
  37:      3220.64 cm**-1
  38:      3824.02 cm**-1

IR SPECTRUM
-----------

 Mode   freq       eps      Int      T**2         TX        TY        TZ
       cm**-1   L/(mol*cm) km/mol    a.u.
----------------------------------------------------------------------------
  6:    157.51   0.000026    0.13  0.000051  (-0.007150 -0.000000 -0.000002)
  7:    344.62   0.035495  179.38  0.032141  ( 0.179280  0.000000  0.000000)
  8:    350.63   0.001452    7.34  0.001293  ( 0.000002 -0.016806 -0.031782)
  9:    375.46   0.000052    0.26  0.000043  ( 0.006562 -0.000000 -0.000002)
 10:    433.31   0.000096    0.48  0.000069  ( 0.008300  0.000003  0.000001)
 11:    451.39   0.001886    9.53  0.001304  ( 0.000000 -0.013646  0.033429)
 12:    466.02   0.000398    2.01  0.000266  ( 0.000000 -0.002173 -0.016176)
 13:    522.75   0.007563   38.22  0.004515  (-0.067195 -0.000001 -0.000005)
 14:    651.26   0.000214    1.08  0.000103  (-0.000000  0.003965 -0.009320)
 15:    724.16   0.000115    0.58  0.000050  (-0.007046 -0.000001  0.000001)
 16:    763.27   0.022768  115.06  0.009309  ( 0.000000  0.002634  0.096446)
 17:    814.05   0.000433    2.19  0.000166  ( 0.012888 -0.000001 -0.000000)
 18:    853.78   0.023898  120.77  0.008735  ( 0.093461 -0.000001 -0.000001)
 19:    874.70   0.000129    0.65  0.000046  (-0.000000  0.000472 -0.006766)
 20:    943.79   0.000057    0.29  0.000019  (-0.004341  0.000000 -0.000001)
 21:    962.80   0.000000    0.00  0.000000  ( 0.000160  0.000002  0.000000)
 22:   1028.61   0.001065    5.38  0.000323  (-0.000000  0.002799  0.017752)
 23:   1109.12   0.006627   33.49  0.001864  (-0.000000  0.041091  0.013266)
 24:   1165.38   0.000215    1.09  0.000058  (-0.000000  0.004398 -0.006183)
 25:   1197.47   0.053734  271.55  0.014003  ( 0.000000  0.012684 -0.117653)
 26:   1241.20   0.044311  223.93  0.011141  ( 0.000000  0.009616  0.105110)
 27:   1307.09   0.010504   53.08  0.002508  ( 0.000000  0.006567  0.049646)
 28:   1321.53   0.000790    3.99  0.000187  ( 0.000000  0.004332 -0.012955)
 29:   1381.34   0.006721   33.96  0.001518  (-0.000000 -0.015751 -0.035640)
 30:   1480.21   0.011649   58.87  0.002456  ( 0.000000 -0.008236  0.048868)
 31:   1547.05   0.079524  401.88  0.016041  ( 0.000000 -0.007114 -0.126454)
 32:   1669.11   0.001708    8.63  0.000319  (-0.000000 -0.001141 -0.017832)
 33:   1678.63   0.000182    0.92  0.000034  (-0.000000  0.001644  0.005585)
 34:   3193.52   0.001368    6.91  0.000134  (-0.000000 -0.002959 -0.011177)
 35:   3206.79   0.000866    4.37  0.000084  ( 0.000000  0.002303 -0.008884)
 36:   3218.47   0.000080    0.40  0.000008  (-0.000000  0.000526  0.002736)
 37:   3220.64   0.000030    0.15  0.000003  ( 0.000000 -0.001159 -0.001256)
 38:   3824.02   0.035416  178.98  0.002890  ( 0.000000 -0.037753 -0.038274)

--------------------------
THERMOCHEMISTRY AT 298.15K
--------------------------

Temperature         ... 298.15 K
Pressure            ... 1.00 atm
Total Mass          ... 112.10 AMU

Throughout the following assumptions are being made:
  (1) The electronic state is orbitally nondegenerate
  (2) There are no thermally accessible electronically excited states
  (3) Hindered rotations indicated by low frequency modes are not
      treated as such but are treated as vibrations and this may
      cause some error
  (4) All equations used are the standard statistical mechanics
      equations for an ideal gas
  (5) All vibrations are strictly harmonic

freq.     157.51  E(vib)   ...       0.40
freq.     344.62  E(vib)   ...       0.23
freq.     350.63  E(vib)   ...       0.23
freq.     375.46  E(vib)   ...       0.21
freq.     433.31  E(vib)   ...       0.17
freq.     451.39  E(vib)   ...       0.16
freq.     466.02  E(vib)   ...       0.16
freq.     522.75  E(vib)   ...       0.13
freq.     651.26  E(vib)   ...       0.08
freq.     724.16  E(vib)   ...       0.06
freq.     763.27  E(vib)   ...       0.06
freq.     814.05  E(vib)   ...       0.05
freq.     853.78  E(vib)   ...       0.04
freq.     874.70  E(vib)   ...       0.04
freq.     943.79  E(vib)   ...       0.03
freq.     962.80  E(vib)   ...       0.03
freq.    1028.61  E(vib)   ...       0.02
freq.    1109.12  E(vib)   ...       0.02
freq.    1165.38  E(vib)   ...       0.01
freq.    1197.47  E(vib)   ...       0.01
freq.    1241.20  E(vib)   ...       0.01
freq.    1307.09  E(vib)   ...       0.01
freq.    1321.53  E(vib)   ...       0.01
freq.    1381.34  E(vib)   ...       0.01
freq.    1480.21  E(vib)   ...       0.00
freq.    1547.05  E(vib)   ...       0.00
freq.    1669.11  E(vib)   ...       0.00
freq.    1678.63  E(vib)   ...       0.00
freq.    3193.52  E(vib)   ...       0.00
freq.    3206.79  E(vib)   ...       0.00
freq.    3218.47  E(vib)   ...       0.00
freq.    3220.64  E(vib)   ...       0.00
freq.    3824.02  E(vib)   ...       0.00

------------
INNER ENERGY
------------

The inner energy is: U= E(el) + E(ZPE) + E(vib) + E(rot) + E(trans)
    E(el)   - is the total energy from the electronic structure calculation
              = E(kin-el) + E(nuc-el) + E(el-el) + E(nuc-nuc)
    E(ZPE)  - the the zero temperature vibrational energy from the frequency calculation
    E(vib)  - the the finite temperature correction to E(ZPE) due to population
              of excited vibrational states
    E(rot)  - is the rotational thermal energy
    E(trans)- is the translational thermal energy

Summary of contributions to the inner energy U:
Electronic energy                ...   -406.44035841 Eh
Zero point energy                ...      0.09677585 Eh      60.73 kcal/mol
Thermal vibrational correction   ...      0.00345559 Eh       2.17 kcal/mol
Thermal rotational correction    ...      0.00141627 Eh       0.89 kcal/mol
Thermal translational correction ...      0.00141627 Eh       0.89 kcal/mol
-----------------------------------------------------------------------
Total thermal energy                   -406.33729442 Eh

Summary of corrections to the electronic energy:
(perhaps to be used in another calculation)
Total thermal correction                  0.00628813 Eh       3.95 kcal/mol
Non-thermal (ZPE) correction              0.09677585 Eh      60.73 kcal/mol
-----------------------------------------------------------------------
Total correction                          0.10306399 Eh      64.67 kcal/mol

--------
ENTHALPY
--------

The enthalpy is H = U + kB*T
                kB is Boltzmann's constant
Total free energy                 ...   -406.33729442 Eh
Thermal Enthalpy correction       ...      0.00094421 Eh       0.59 kcal/mol
-----------------------------------------------------------------------
Total Enthalpy                    ...   -406.33635022 Eh

Note: Rotational entropy computed according to Herzberg
Infrared and Raman Spectra, Chapter V,1, Van Nostrand Reinhold, 1945
Point Group:  Cs, Symmetry Number:   1
Rotational constants in cm-1:     0.189385     0.048881     0.038853

Vibrational entropy computed according to the QRRHO of S. Grimme
Chem.Eur.J. 2012 18 9955

-------
ENTROPY
-------

The entropy contributions are T*S = T*(S(el)+S(vib)+S(rot)+S(trans))
     S(el)   - electronic entropy
     S(vib)  - vibrational entropy
     S(rot)  - rotational entropy
     S(trans)- translational entropy
The entropies will be listed as multiplied by the temperature to get
units of energy

Electronic entropy                ...      0.00000000 Eh      0.00 kcal/mol
Vibrational entropy               ...      0.00521568 Eh      3.27 kcal/mol
Rotational entropy                ...      0.01325463 Eh      8.32 kcal/mol
Translational entropy             ...      0.01903305 Eh     11.94 kcal/mol
-----------------------------------------------------------------------
Final entropy term                ...      0.03750336 Eh     23.53 kcal/mol

In case the symmetry of your molecule has not been determined correctly
or in case you have a reason to use a different symmetry number we print
out the resulting rotational entropy values for sn=1,12 :
 --------------------------------------------------------
|  sn= 1 | S(rot)=       0.01325463 Eh      8.32 kcal/mol|
|  sn= 2 | S(rot)=       0.01260017 Eh      7.91 kcal/mol|
|  sn= 3 | S(rot)=       0.01221734 Eh      7.67 kcal/mol|
|  sn= 4 | S(rot)=       0.01194572 Eh      7.50 kcal/mol|
|  sn= 5 | S(rot)=       0.01173503 Eh      7.36 kcal/mol|
|  sn= 6 | S(rot)=       0.01156288 Eh      7.26 kcal/mol|
|  sn= 7 | S(rot)=       0.01141734 Eh      7.16 kcal/mol|
|  sn= 8 | S(rot)=       0.01129126 Eh      7.09 kcal/mol|
|  sn= 9 | S(rot)=       0.01118005 Eh      7.02 kcal/mol|
|  sn=10 | S(rot)=       0.01108057 Eh      6.95 kcal/mol|
|  sn=11 | S(rot)=       0.01099058 Eh      6.90 kcal/mol|
|  sn=12 | S(rot)=       0.01090843 Eh      6.85 kcal/mol|
 --------------------------------------------------------

-------------------
GIBBS FREE ENERGY
-------------------

The Gibbs free energy is G = H - T*S

Total enthalpy                    ...   -406.33635022 Eh
Total entropy correction          ...     -0.03750336 Eh    -23.53 kcal/mol
-----------------------------------------------------------------------
Final Gibbs free energy         ...   -406.37385358 Eh

For completeness - the Gibbs free energy minus the electronic energy
G-E(el)                           ...      0.06650483 Eh     41.73 kcal/mol

                             ****ORCA TERMINATED NORMALLY****
TOTAL RUN TIME: 0 days 0 hours 3 minutes 31 seconds 979 msec
