                         Program Version 5.0.4 -  RELEASE  -
|  1> %pal nprocs 24 end
|  2> %maxcore 3500
|  3> ! PBE0 D3BJ def2-TZVP TightSCF OPT FREQ TightOpt
|  4> ! CPCM(dmso)
|  5> %scf
|  6> MaxIter 800
|  7> end
|  8> %geom
|  9> MaxIter 800
| 10> MaxStep 0.2
| 11> end
| 12> *xyz -1 1
| 13>
| 14> C      -0.00000000     -0.54771100     -1.54061300
| 15> C       0.00000000      0.67787700     -0.90390400
| 16> C       0.00000000     -1.72648800     -0.82090000
| 17> H       0.00000100      1.58963200     -1.49311700
| 18> H       0.00000000     -2.67709500     -1.34511700
| 19> C       0.00000000      0.72473300      0.48167100
| 20> C       0.00000000     -1.67762400      0.56491100
| 21> H       0.00000000      1.68812300      0.98358300
| 22> H       0.00000000     -2.60471500      1.13116300
| 23> C      -0.00000000     -0.44982100      1.29425900
| 24> O      -0.00000100     -0.40502300      2.57402800
| 25> F      -0.00000100     -0.59373500     -2.90567800
| 26> *
| 27>
| 28>                          ****END OF INPUT****
 Total Charge           Charge          ....   -1
 Multiplicity           Mult            ....    1
 Number of Electrons    NEL             ....   58
Dispersion correction           -0.010048480
FINAL SINGLE POINT ENERGY      -405.954119633841
Dispersion correction            ... done
                    ***********************HURRAY********************

CARTESIAN COORDINATES (ANGSTROEM)
---------------------------------
  C     -0.000000   -0.547711   -1.540878
  C      0.000000    0.677887   -0.903934
  C      0.000000   -1.726554   -0.820975
  H      0.000001    1.589645   -1.493034
  H      0.000000   -2.677098   -1.345185
  C      0.000000    0.724729    0.481778
  C     -0.000000   -1.677645    0.564921
  H      0.000000    1.688140    0.983522
  H      0.000000   -2.604533    1.131390
  C     -0.000001   -0.449823    1.294387
  O     -0.000001   -0.405141    2.574263
  F     -0.000001   -0.593743   -2.905969

 Multiplicity           Mult            ....    1
 Number of Electrons    NEL             ....   58
 Basis Dimension        Dim             ....  272

ORBITAL ENERGIES
----------------

  NO   OCC          E(Eh)            E(eV)
   0   2.0000     -24.760890      -673.7781
   1   2.0000     -19.108068      -519.9570
   2   2.0000     -10.270579      -279.4767
   3   2.0000     -10.242719      -278.7186
   4   2.0000     -10.210410      -277.8394
   5   2.0000     -10.210356      -277.8379
   6   2.0000     -10.192716      -277.3579
   7   2.0000     -10.192677      -277.3568
   8   2.0000      -1.233844       -33.5746
   9   2.0000      -0.974024       -26.5045
  10   2.0000      -0.850483       -23.1428
  11   2.0000      -0.753208       -20.4958
  12   2.0000      -0.714385       -19.4394
  13   2.0000      -0.616254       -16.7691
  14   2.0000      -0.588319       -16.0090
  15   2.0000      -0.539390       -14.6776
  16   2.0000      -0.486647       -13.2423
  17   2.0000      -0.467625       -12.7247
  18   2.0000      -0.455529       -12.3956
  19   2.0000      -0.422236       -11.4896
  20   2.0000      -0.416164       -11.3244
  21   2.0000      -0.403205       -10.9718
  22   2.0000      -0.378337       -10.2951
  23   2.0000      -0.365858        -9.9555
  24   2.0000      -0.335369        -9.1259
  25   2.0000      -0.304782        -8.2935
  26   2.0000      -0.253990        -6.9114
  27   2.0000      -0.218728        -5.9519
  28   2.0000      -0.175140        -4.7658
  29   0.0000       0.007529         0.2049
  30   0.0000       0.050548         1.3755
  31   0.0000       0.081810         2.2262
  32   0.0000       0.104839         2.8528
  33   0.0000       0.107864         2.9351

MULLIKEN ATOMIC CHARGES
-----------------------
   0 C :    0.254101
   1 C :   -0.241589
   2 C :   -0.241586
   3 H :    0.140565
   4 H :    0.140616
   5 C :   -0.285409
   6 C :   -0.285584
   7 H :    0.106222
   8 H :    0.106131
   9 C :    0.236218
  10 O :   -0.680454
  11 F :   -0.249231
Sum of atomic charges:   -1.0000000

LOEWDIN ATOMIC CHARGES
----------------------
   0 C :   -0.321527
   1 C :   -0.173489
   2 C :   -0.173405
   3 H :    0.151117
   4 H :    0.151123
   5 C :   -0.183935
   6 C :   -0.184047
   7 H :    0.137108
   8 H :    0.137088
   9 C :   -0.444001
  10 O :   -0.213865
  11 F :    0.117832

  Mayer bond orders larger than 0.100000
B(  0-C ,  1-C ) :   1.3971 B(  0-C ,  2-C ) :   1.3974 B(  0-C , 11-F ) :   0.9728
B(  1-C ,  3-H ) :   0.9657 B(  1-C ,  5-C ) :   1.3436 B(  2-C ,  4-H ) :   0.9657
B(  2-C ,  6-C ) :   1.3433 B(  5-C ,  7-H ) :   0.9747 B(  5-C ,  9-C ) :   1.2283
B(  6-C ,  8-H ) :   0.9747 B(  6-C ,  9-C ) :   1.2287 B(  9-C , 10-O ) :   1.6627

Dispersion correction           -0.010048218
FINAL SINGLE POINT ENERGY      -405.954119796304

DIPOLE MOMENT
-------------
                                X             Y             Z
Electronic contribution:     -0.00000      -0.19073      -5.58891
Nuclear contribution   :      0.00000       0.09121       2.71320
                        -----------------------------------------
Total Dipole Moment    :      0.00000      -0.09952      -2.87571
                        -----------------------------------------
Magnitude (a.u.)       :      2.87743
Magnitude (Debye)      :      7.31385

Dispersion correction in the Hessian             ... done   (      0.3 sec)

VIBRATIONAL FREQUENCIES
-----------------------

Scaling factor for frequencies =  1.000000000  (already applied!)

   0:         0.00 cm**-1
   1:         0.00 cm**-1
   2:         0.00 cm**-1
   3:         0.00 cm**-1
   4:         0.00 cm**-1
   5:         0.00 cm**-1
   6:       141.43 cm**-1
   7:       343.01 cm**-1
   8:       356.36 cm**-1
   9:       437.29 cm**-1
  10:       464.54 cm**-1
  11:       465.83 cm**-1
  12:       507.65 cm**-1
  13:       644.98 cm**-1
  14:       716.91 cm**-1
  15:       764.20 cm**-1
  16:       792.26 cm**-1
  17:       847.38 cm**-1
  18:       853.79 cm**-1
  19:       927.30 cm**-1
  20:       941.05 cm**-1
  21:      1002.28 cm**-1
  22:      1089.36 cm**-1
  23:      1144.47 cm**-1
  24:      1215.48 cm**-1
  25:      1265.38 cm**-1
  26:      1305.56 cm**-1
  27:      1392.95 cm**-1
  28:      1446.18 cm**-1
  29:      1528.17 cm**-1
  30:      1605.71 cm**-1
  31:      1647.52 cm**-1
  32:      3166.43 cm**-1
  33:      3166.49 cm**-1
  34:      3188.70 cm**-1
  35:      3190.57 cm**-1

IR SPECTRUM
-----------

 Mode   freq       eps      Int      T**2         TX        TY        TZ
       cm**-1   L/(mol*cm) km/mol    a.u.
----------------------------------------------------------------------------
  6:    141.43   0.001474    7.45  0.003252  (-0.057029  0.000004  0.000003)
  7:    343.01   0.000247    1.25  0.000224  (-0.014979  0.000002  0.000004)
  8:    356.36   0.001571    7.94  0.001376  (-0.000000 -0.037085  0.000588)
  9:    437.29   0.000000    0.00  0.000000  ( 0.000282  0.000003 -0.000001)
 10:    464.54   0.000083    0.42  0.000055  (-0.000001  0.000207  0.007442)
 11:    465.83   0.000139    0.70  0.000093  (-0.000000 -0.009639 -0.000377)
 12:    507.65   0.008415   42.53  0.005173  ( 0.071925 -0.000003 -0.000002)
 13:    644.98   0.000020    0.10  0.000010  (-0.000000  0.003065  0.000332)
 14:    716.91   0.001520    7.68  0.000662  (-0.025720  0.000002 -0.000005)
 15:    764.20   0.035717  180.50  0.014585  ( 0.000000  0.003826  0.120708)
 16:    792.26   0.000000    0.00  0.000000  ( 0.000413  0.000001 -0.000003)
 17:    847.38   0.024392  123.27  0.008983  ( 0.094778  0.000002  0.000000)
 18:    853.79   0.002499   12.63  0.000913  (-0.000002 -0.001129 -0.030201)
 19:    927.30   0.000445    2.25  0.000150  (-0.012239  0.000003 -0.000003)
 20:    941.05   0.000000    0.00  0.000000  (-0.000394  0.000000  0.000001)
 21:   1002.28   0.000334    1.69  0.000104  ( 0.000000 -0.000089 -0.010193)
 22:   1089.36   0.009890   49.98  0.002833  ( 0.000000 -0.053209  0.001353)
 23:   1144.47   0.002979   15.05  0.000812  ( 0.000000  0.000407  0.028498)
 24:   1215.48   0.041561  210.03  0.010670  ( 0.000000  0.002931  0.103256)
 25:   1265.38   0.002338   11.81  0.000576  ( 0.000000 -0.023954  0.001641)
 26:   1305.56   0.004950   25.02  0.001183  (-0.000000  0.034393 -0.000588)
 27:   1392.95   0.035201  177.89  0.007886  (-0.000000  0.002680  0.088764)
 28:   1446.18   0.009004   45.50  0.001943  ( 0.000000  0.044080  0.000062)
 29:   1528.17   0.203687  1029.35  0.041594  (-0.000000  0.006915  0.203830)
 30:   1605.71   0.002862   14.46  0.000556  (-0.000000 -0.023556  0.001121)
 31:   1647.52   0.015415   77.90  0.002920  ( 0.000000 -0.002121 -0.053993)
 32:   3166.43   0.008813   44.54  0.000869  ( 0.000000 -0.010643 -0.027482)
 33:   3166.49   0.005661   28.61  0.000558  (-0.000000 -0.017303  0.016077)
 34:   3188.70   0.005687   28.74  0.000557  (-0.000000 -0.023568  0.001078)
 35:   3190.57   0.000513    2.59  0.000050  (-0.000000  0.001139  0.006990)

--------------------------
THERMOCHEMISTRY AT 298.15K
--------------------------

Temperature         ... 298.15 K
Pressure            ... 1.00 atm
Total Mass          ... 111.09 AMU

Throughout the following assumptions are being made:
  (1) The electronic state is orbitally nondegenerate
  (2) There are no thermally accessible electronically excited states
  (3) Hindered rotations indicated by low frequency modes are not
      treated as such but are treated as vibrations and this may
      cause some error
  (4) All equations used are the standard statistical mechanics
      equations for an ideal gas
  (5) All vibrations are strictly harmonic

freq.     141.43  E(vib)   ...       0.41
freq.     343.01  E(vib)   ...       0.23
freq.     356.36  E(vib)   ...       0.22
freq.     437.29  E(vib)   ...       0.17
freq.     464.54  E(vib)   ...       0.16
freq.     465.83  E(vib)   ...       0.16
freq.     507.65  E(vib)   ...       0.14
freq.     644.98  E(vib)   ...       0.09
freq.     716.91  E(vib)   ...       0.07
freq.     764.20  E(vib)   ...       0.06
freq.     792.26  E(vib)   ...       0.05
freq.     847.38  E(vib)   ...       0.04
freq.     853.79  E(vib)   ...       0.04
freq.     927.30  E(vib)   ...       0.03
freq.     941.05  E(vib)   ...       0.03
freq.    1002.28  E(vib)   ...       0.02
freq.    1089.36  E(vib)   ...       0.02
freq.    1144.47  E(vib)   ...       0.01
freq.    1215.48  E(vib)   ...       0.01
freq.    1265.38  E(vib)   ...       0.01
freq.    1305.56  E(vib)   ...       0.01
freq.    1392.95  E(vib)   ...       0.00
freq.    1446.18  E(vib)   ...       0.00
freq.    1528.17  E(vib)   ...       0.00
freq.    1605.71  E(vib)   ...       0.00
freq.    1647.52  E(vib)   ...       0.00
freq.    3166.43  E(vib)   ...       0.00
freq.    3166.49  E(vib)   ...       0.00
freq.    3188.70  E(vib)   ...       0.00
freq.    3190.57  E(vib)   ...       0.00

------------
INNER ENERGY
------------

The inner energy is: U= E(el) + E(ZPE) + E(vib) + E(rot) + E(trans)
    E(el)   - is the total energy from the electronic structure calculation
              = E(kin-el) + E(nuc-el) + E(el-el) + E(nuc-nuc)
    E(ZPE)  - the the zero temperature vibrational energy from the frequency calculation
    E(vib)  - the the finite temperature correction to E(ZPE) due to population
              of excited vibrational states
    E(rot)  - is the rotational thermal energy
    E(trans)- is the translational thermal energy

Summary of contributions to the inner energy U:
Electronic energy                ...   -405.95411980 Eh
Zero point energy                ...      0.08328805 Eh      52.26 kcal/mol
Thermal vibrational correction   ...      0.00316242 Eh       1.98 kcal/mol
Thermal rotational correction    ...      0.00141627 Eh       0.89 kcal/mol
Thermal translational correction ...      0.00141627 Eh       0.89 kcal/mol
-----------------------------------------------------------------------
Total thermal energy                   -405.86483678 Eh

Summary of corrections to the electronic energy:
(perhaps to be used in another calculation)
Total thermal correction                  0.00599496 Eh       3.76 kcal/mol
Non-thermal (ZPE) correction              0.08328805 Eh      52.26 kcal/mol
-----------------------------------------------------------------------
Total correction                          0.08928301 Eh      56.03 kcal/mol

--------
ENTHALPY
--------

The enthalpy is H = U + kB*T
                kB is Boltzmann's constant
Total free energy                 ...   -405.86483678 Eh
Thermal Enthalpy correction       ...      0.00094421 Eh       0.59 kcal/mol
-----------------------------------------------------------------------
Total Enthalpy                    ...   -405.86389257 Eh

Note: Rotational entropy computed according to Herzberg
Infrared and Raman Spectra, Chapter V,1, Van Nostrand Reinhold, 1945
Point Group:  Cs, Symmetry Number:   1
Rotational constants in cm-1:     0.191679     0.049546     0.039370

Vibrational entropy computed according to the QRRHO of S. Grimme
Chem.Eur.J. 2012 18 9955

-------
ENTROPY
-------

The entropy contributions are T*S = T*(S(el)+S(vib)+S(rot)+S(trans))
     S(el)   - electronic entropy
     S(vib)  - vibrational entropy
     S(rot)  - rotational entropy
     S(trans)- translational entropy
The entropies will be listed as multiplied by the temperature to get
units of energy

Electronic entropy                ...      0.00000000 Eh      0.00 kcal/mol
Vibrational entropy               ...      0.00480846 Eh      3.02 kcal/mol
Rotational entropy                ...      0.01323634 Eh      8.31 kcal/mol
Translational entropy             ...      0.01902026 Eh     11.94 kcal/mol
-----------------------------------------------------------------------
Final entropy term                ...      0.03706505 Eh     23.26 kcal/mol

In case the symmetry of your molecule has not been determined correctly
or in case you have a reason to use a different symmetry number we print
out the resulting rotational entropy values for sn=1,12 :
 --------------------------------------------------------
|  sn= 1 | S(rot)=       0.01323634 Eh      8.31 kcal/mol|
|  sn= 2 | S(rot)=       0.01258188 Eh      7.90 kcal/mol|
|  sn= 3 | S(rot)=       0.01219905 Eh      7.66 kcal/mol|
|  sn= 4 | S(rot)=       0.01192742 Eh      7.48 kcal/mol|
|  sn= 5 | S(rot)=       0.01171674 Eh      7.35 kcal/mol|
|  sn= 6 | S(rot)=       0.01154459 Eh      7.24 kcal/mol|
|  sn= 7 | S(rot)=       0.01139904 Eh      7.15 kcal/mol|
|  sn= 8 | S(rot)=       0.01127297 Eh      7.07 kcal/mol|
|  sn= 9 | S(rot)=       0.01116176 Eh      7.00 kcal/mol|
|  sn=10 | S(rot)=       0.01106228 Eh      6.94 kcal/mol|
|  sn=11 | S(rot)=       0.01097229 Eh      6.89 kcal/mol|
|  sn=12 | S(rot)=       0.01089013 Eh      6.83 kcal/mol|
 --------------------------------------------------------

-------------------
GIBBS FREE ENERGY
-------------------

The Gibbs free energy is G = H - T*S

Total enthalpy                    ...   -405.86389257 Eh
Total entropy correction          ...     -0.03706505 Eh    -23.26 kcal/mol
-----------------------------------------------------------------------
Final Gibbs free energy         ...   -405.90095762 Eh

For completeness - the Gibbs free energy minus the electronic energy
G-E(el)                           ...      0.05316217 Eh     33.36 kcal/mol

                             ****ORCA TERMINATED NORMALLY****
TOTAL RUN TIME: 0 days 0 hours 2 minutes 36 seconds 668 msec
