                         Program Version 5.0.4 -  RELEASE  -
|  1> %pal nprocs 24 end
|  2> %maxcore 3500
|  3> ! PBE0 D3BJ def2-TZVP TightSCF OPT FREQ TightOpt
|  4> ! CPCM(dmso)
|  5> %scf
|  6> MaxIter 800
|  7> end
|  8> %geom
|  9> MaxIter 800
| 10> MaxStep 0.2
| 11> end
| 12> *xyz 0 1
| 13>
| 14> C      -0.01505100     -0.54559800     -1.58456900
| 15> C      -0.01379400      0.67200800     -0.90985800
| 16> C      -0.01102000     -1.70768300     -0.81560100
| 17> H      -0.02518600      1.59660700     -1.47865700
| 18> H      -0.02016400     -2.67342500     -1.31154600
| 19> C      -0.00203700      0.73494800      0.47580700
| 20> C       0.00058000     -1.66500100      0.56975800
| 21> H      -0.00427900      1.69488000      0.98343300
| 22> H       0.00037600     -2.57860400      1.15375400
| 23> C       0.00685200     -0.43759400      1.22204400
| 24> O       0.01554100     -0.43696000      2.58045500
| 25> H       0.01633400      0.47203700      2.90160400
| 26> C       0.00456500     -0.60356700     -3.08279200
| 27> H       1.03077700     -0.63133200     -3.46340200
| 28> H      -0.50299300     -1.49719700     -3.45129900
| 29> H      -0.48050000      0.27207200     -3.51862300
| 30> *
| 31>
| 32>                          ****END OF INPUT****
 Total Charge           Charge          ....    0
 Multiplicity           Mult            ....    1
 Number of Electrons    NEL             ....   58
Dispersion correction           -0.013294210
FINAL SINGLE POINT ENERGY      -346.532364911303
Dispersion correction            ... done
Dispersion correction           -0.013294125
FINAL SINGLE POINT ENERGY      -346.532365279046
Dispersion correction            ... done
                    ***********************HURRAY********************

CARTESIAN COORDINATES (ANGSTROEM)
---------------------------------
  C     -0.014961   -0.545423   -1.584661
  C     -0.014144    0.672165   -0.909942
  C     -0.010324   -1.708020   -0.815846
  H     -0.025701    1.596991   -1.478143
  H     -0.018794   -2.673509   -1.312012
  C     -0.002444    0.734924    0.476140
  C      0.001233   -1.665161    0.569594
  H     -0.005027    1.695150    0.983008
  H      0.001532   -2.578375    1.154058
  C      0.006815   -0.437751    1.222249
  O      0.015329   -0.437138    2.580788
  H      0.015639    0.472131    2.900980
  C      0.004370   -0.603585   -3.082845
  H      1.030423   -0.635135   -3.463302
  H     -0.506363   -1.495402   -3.451079
  H     -0.477580    0.273730   -3.518478

 Multiplicity           Mult            ....    1
 Number of Electrons    NEL             ....   58
 Basis Dimension        Dim             ....  296

ORBITAL ENERGIES
----------------

  NO   OCC          E(Eh)            E(eV)
   0   2.0000     -19.235101      -523.4137
   1   2.0000     -10.284228      -279.8481
   2   2.0000     -10.227729      -278.3106
   3   2.0000     -10.223879      -278.2059
   4   2.0000     -10.223484      -278.1952
   5   2.0000     -10.222457      -278.1672
   6   2.0000     -10.220541      -278.1151
   7   2.0000     -10.209805      -277.8229
   8   2.0000      -1.092468       -29.7276
   9   2.0000      -0.883498       -24.0412
  10   2.0000      -0.790396       -21.5078
  11   2.0000      -0.772162       -21.0116
  12   2.0000      -0.701222       -19.0812
  13   2.0000      -0.641089       -17.4449
  14   2.0000      -0.608136       -16.5482
  15   2.0000      -0.561565       -15.2809
  16   2.0000      -0.503034       -13.6882
  17   2.0000      -0.478526       -13.0214
  18   2.0000      -0.448360       -12.2005
  19   2.0000      -0.437931       -11.9167
  20   2.0000      -0.432595       -11.7715
  21   2.0000      -0.419993       -11.4286
  22   2.0000      -0.415909       -11.3175
  23   2.0000      -0.383031       -10.4228
  24   2.0000      -0.366088        -9.9618
  25   2.0000      -0.345247        -9.3947
  26   2.0000      -0.345192        -9.3932
  27   2.0000      -0.270198        -7.3525
  28   2.0000      -0.232138        -6.3168
  29   0.0000      -0.010269        -0.2794
  30   0.0000       0.009682         0.2635
  31   0.0000       0.063592         1.7304
  32   0.0000       0.065482         1.7819
  33   0.0000       0.085210         2.3187

MULLIKEN ATOMIC CHARGES
-----------------------
   0 C :    0.130454
   1 C :   -0.229388
   2 C :   -0.216040
   3 H :    0.146394
   4 H :    0.142994
   5 C :   -0.232898
   6 C :   -0.233808
   7 H :    0.154663
   8 H :    0.140904
   9 C :    0.252682
  10 O :   -0.439253
  11 H :    0.366009
  12 C :   -0.414234
  13 H :    0.142637
  14 H :    0.144483
  15 H :    0.144401
Sum of atomic charges:   -0.0000000

LOEWDIN ATOMIC CHARGES
----------------------
   0 C :   -0.197426
   1 C :   -0.125410
   2 C :   -0.124329
   3 H :    0.155525
   4 H :    0.155498
   5 C :   -0.147113
   6 C :   -0.138056
   7 H :    0.156204
   8 H :    0.154624
   9 C :   -0.298632
  10 O :    0.070645
  11 H :    0.205944
  12 C :   -0.266174
  13 H :    0.133600
  14 H :    0.132565
  15 H :    0.132535

  Mayer bond orders larger than 0.100000
B(  0-C ,  1-C ) :   1.3702 B(  0-C ,  2-C ) :   1.3627 B(  0-C , 12-C ) :   0.9394
B(  1-C ,  3-H ) :   0.9660 B(  1-C ,  5-C ) :   1.3888 B(  2-C ,  4-H ) :   0.9808
B(  2-C ,  6-C ) :   1.4425 B(  5-C ,  7-H ) :   0.9642 B(  5-C ,  9-C ) :   1.3583
B(  6-C ,  8-H ) :   0.9810 B(  6-C ,  9-C ) :   1.3765 B(  9-C , 10-O ) :   1.1180
B( 10-O , 11-H ) :   0.8534 B( 12-C , 13-H ) :   0.9514 B( 12-C , 14-H ) :   0.9774
B( 12-C , 15-H ) :   0.9782

Dispersion correction           -0.013294094
FINAL SINGLE POINT ENERGY      -346.532365607135

DIPOLE MOMENT
-------------
                                X             Y             Z
Electronic contribution:     -0.00793       0.17235       6.31879
Nuclear contribution   :      0.02004       0.54423      -6.49268
                        -----------------------------------------
Total Dipole Moment    :      0.01211       0.71658      -0.17389
                        -----------------------------------------
Magnitude (a.u.)       :      0.73748
Magnitude (Debye)      :      1.87452

Dispersion correction in the Hessian             ... done   (      0.2 sec)

VIBRATIONAL FREQUENCIES
-----------------------

Scaling factor for frequencies =  1.000000000  (already applied!)

   0:         0.00 cm**-1
   1:         0.00 cm**-1
   2:         0.00 cm**-1
   3:         0.00 cm**-1
   4:         0.00 cm**-1
   5:         0.00 cm**-1
   6:        -8.34 cm**-1 ***imaginary mode***
   7:       144.45 cm**-1
   8:       305.63 cm**-1
   9:       334.73 cm**-1
  10:       354.38 cm**-1
  11:       423.57 cm**-1
  12:       431.09 cm**-1
  13:       468.16 cm**-1
  14:       520.56 cm**-1
  15:       654.78 cm**-1
  16:       725.80 cm**-1
  17:       756.15 cm**-1
  18:       829.39 cm**-1
  19:       840.94 cm**-1
  20:       863.57 cm**-1
  21:       947.83 cm**-1
  22:       970.33 cm**-1
  23:      1001.37 cm**-1
  24:      1034.50 cm**-1
  25:      1057.06 cm**-1
  26:      1125.38 cm**-1
  27:      1187.27 cm**-1
  28:      1196.23 cm**-1
  29:      1246.46 cm**-1
  30:      1298.62 cm**-1
  31:      1337.53 cm**-1
  32:      1376.17 cm**-1
  33:      1396.63 cm**-1
  34:      1451.12 cm**-1
  35:      1461.71 cm**-1
  36:      1487.49 cm**-1
  37:      1555.59 cm**-1
  38:      1654.85 cm**-1
  39:      1678.04 cm**-1
  40:      3041.41 cm**-1
  41:      3104.44 cm**-1
  42:      3134.21 cm**-1
  43:      3176.67 cm**-1
  44:      3181.02 cm**-1
  45:      3191.99 cm**-1
  46:      3204.32 cm**-1
  47:      3823.65 cm**-1

IR SPECTRUM
-----------

 Mode   freq       eps      Int      T**2         TX        TY        TZ
       cm**-1   L/(mol*cm) km/mol    a.u.
----------------------------------------------------------------------------
  7:    144.45   0.000416    2.10  0.000900  ( 0.029956 -0.000031  0.001539)
  8:    305.63   0.000750    3.79  0.000766  ( 0.001436  0.014938 -0.023252)
  9:    334.73   0.000329    1.66  0.000306  ( 0.017482 -0.000080  0.000800)
 10:    354.38   0.035465  179.22  0.031230  ( 0.176719  0.000027 -0.000420)
 11:    423.57   0.000295    1.49  0.000217  (-0.004830 -0.001182 -0.013882)
 12:    431.09   0.002232   11.28  0.001616  ( 0.003143 -0.007600 -0.039346)
 13:    468.16   0.000480    2.43  0.000320  ( 0.000327 -0.001404  0.017828)
 14:    520.56   0.007428   37.54  0.004453  (-0.066686 -0.000072  0.002396)
 15:    654.78   0.000116    0.59  0.000055  (-0.000289 -0.000786  0.007397)
 16:    725.80   0.000458    2.31  0.000197  (-0.012596 -0.000290 -0.006170)
 17:    756.15   0.005027   25.40  0.002075  ( 0.001897  0.000498  0.045506)
 18:    829.39   0.003195   16.14  0.001202  ( 0.034628  0.001648 -0.000410)
 19:    840.94   0.015170   76.66  0.005629  ( 0.075022 -0.000525 -0.000865)
 20:    863.57   0.003323   16.79  0.001201  ( 0.003447  0.002214  0.034409)
 21:    947.83   0.000245    1.24  0.000081  (-0.007409  0.000195  0.005062)
 22:    970.33   0.000024    0.12  0.000008  (-0.002551  0.000851  0.000735)
 23:   1001.37   0.000345    1.74  0.000108  ( 0.000283 -0.006473  0.008097)
 24:   1034.50   0.000287    1.45  0.000087  ( 0.002811  0.002383  0.008544)
 25:   1057.06   0.003779   19.10  0.001116  (-0.021892  0.001484  0.025184)
 26:   1125.38   0.005612   28.36  0.001556  ( 0.000065  0.037767  0.011398)
 27:   1187.27   0.005178   26.17  0.001361  (-0.000193 -0.005142 -0.036532)
 28:   1196.23   0.048969  247.47  0.012775  ( 0.000860 -0.009936  0.112584)
 29:   1246.46   0.001111    5.62  0.000278  (-0.002736  0.002580  0.016252)
 30:   1298.62   0.031955  161.49  0.007679  (-0.001141 -0.008352 -0.087223)
 31:   1337.53   0.001203    6.08  0.000281  ( 0.000114  0.011167 -0.012487)
 32:   1376.17   0.006325   31.96  0.001434  ( 0.000038  0.014155  0.035127)
 33:   1396.63   0.000039    0.20  0.000009  (-0.001632  0.000668  0.002352)
 34:   1451.12   0.003867   19.54  0.000832  ( 0.000764  0.021744 -0.018925)
 35:   1461.71   0.002331   11.78  0.000498  (-0.022193  0.001009  0.002029)
 36:   1487.49   0.005491   27.75  0.001152  (-0.000230 -0.017279 -0.029212)
 37:   1555.59   0.044571  225.24  0.008941  (-0.000158  0.002384  0.094528)
 38:   1654.85   0.004478   22.63  0.000844  (-0.000334  0.020459 -0.020634)
 39:   1678.04   0.010335   52.23  0.001922  (-0.000949 -0.007528 -0.043179)
 40:   3041.41   0.008808   44.51  0.000904  (-0.006072  0.001378  0.029411)
 41:   3104.44   0.004462   22.55  0.000449  (-0.019913 -0.000319 -0.007204)
 42:   3134.21   0.004496   22.72  0.000448  (-0.000043 -0.021142  0.000818)
 43:   3176.67   0.003335   16.86  0.000328  (-0.000182  0.004075 -0.017635)
 44:   3181.02   0.003032   15.32  0.000297  (-0.000120 -0.012612 -0.011762)
 45:   3191.99   0.002067   10.44  0.000202  (-0.000107  0.014208  0.000414)
 46:   3204.32   0.001472    7.44  0.000143  ( 0.000017  0.010005 -0.006579)
 47:   3823.65   0.034843  176.08  0.002844  ( 0.000081  0.036853  0.038543)

--------------------------
THERMOCHEMISTRY AT 298.15K
--------------------------

Temperature         ... 298.15 K
Pressure            ... 1.00 atm
Total Mass          ... 108.14 AMU

Throughout the following assumptions are being made:
  (1) The electronic state is orbitally nondegenerate
  (2) There are no thermally accessible electronically excited states
  (3) Hindered rotations indicated by low frequency modes are not
      treated as such but are treated as vibrations and this may
      cause some error
  (4) All equations used are the standard statistical mechanics
      equations for an ideal gas
  (5) All vibrations are strictly harmonic

freq.     144.45  E(vib)   ...       0.41
freq.     305.63  E(vib)   ...       0.26
freq.     334.73  E(vib)   ...       0.24
freq.     354.38  E(vib)   ...       0.22
freq.     423.57  E(vib)   ...       0.18
freq.     431.09  E(vib)   ...       0.18
freq.     468.16  E(vib)   ...       0.16
freq.     520.56  E(vib)   ...       0.13
freq.     654.78  E(vib)   ...       0.08
freq.     725.80  E(vib)   ...       0.06
freq.     756.15  E(vib)   ...       0.06
freq.     829.39  E(vib)   ...       0.04
freq.     840.94  E(vib)   ...       0.04
freq.     863.57  E(vib)   ...       0.04
freq.     947.83  E(vib)   ...       0.03
freq.     970.33  E(vib)   ...       0.03
freq.    1001.37  E(vib)   ...       0.02
freq.    1034.50  E(vib)   ...       0.02
freq.    1057.06  E(vib)   ...       0.02
freq.    1125.38  E(vib)   ...       0.01
freq.    1187.27  E(vib)   ...       0.01
freq.    1196.23  E(vib)   ...       0.01
freq.    1246.46  E(vib)   ...       0.01
freq.    1298.62  E(vib)   ...       0.01
freq.    1337.53  E(vib)   ...       0.01
freq.    1376.17  E(vib)   ...       0.01
freq.    1396.63  E(vib)   ...       0.00
freq.    1451.12  E(vib)   ...       0.00
freq.    1461.71  E(vib)   ...       0.00
freq.    1487.49  E(vib)   ...       0.00
freq.    1555.59  E(vib)   ...       0.00
freq.    1654.85  E(vib)   ...       0.00
freq.    1678.04  E(vib)   ...       0.00
freq.    3041.41  E(vib)   ...       0.00
freq.    3104.44  E(vib)   ...       0.00
freq.    3134.21  E(vib)   ...       0.00
freq.    3176.67  E(vib)   ...       0.00
freq.    3181.02  E(vib)   ...       0.00
freq.    3191.99  E(vib)   ...       0.00
freq.    3204.32  E(vib)   ...       0.00
freq.    3823.65  E(vib)   ...       0.00

------------
INNER ENERGY
------------

The inner energy is: U= E(el) + E(ZPE) + E(vib) + E(rot) + E(trans)
    E(el)   - is the total energy from the electronic structure calculation
              = E(kin-el) + E(nuc-el) + E(el-el) + E(nuc-nuc)
    E(ZPE)  - the the zero temperature vibrational energy from the frequency calculation
    E(vib)  - the the finite temperature correction to E(ZPE) due to population
              of excited vibrational states
    E(rot)  - is the rotational thermal energy
    E(trans)- is the translational thermal energy

Summary of contributions to the inner energy U:
Electronic energy                ...   -346.53236561 Eh
Zero point energy                ...      0.13207694 Eh      82.88 kcal/mol
Thermal vibrational correction   ...      0.00367173 Eh       2.30 kcal/mol
Thermal rotational correction    ...      0.00141627 Eh       0.89 kcal/mol
Thermal translational correction ...      0.00141627 Eh       0.89 kcal/mol
-----------------------------------------------------------------------
Total thermal energy                   -346.39378440 Eh

Summary of corrections to the electronic energy:
(perhaps to be used in another calculation)
Total thermal correction                  0.00650427 Eh       4.08 kcal/mol
Non-thermal (ZPE) correction              0.13207694 Eh      82.88 kcal/mol
-----------------------------------------------------------------------
Total correction                          0.13858121 Eh      86.96 kcal/mol

--------
ENTHALPY
--------

The enthalpy is H = U + kB*T
                kB is Boltzmann's constant
Total free energy                 ...   -346.39378440 Eh
Thermal Enthalpy correction       ...      0.00094421 Eh       0.59 kcal/mol
-----------------------------------------------------------------------
Total Enthalpy                    ...   -346.39284019 Eh

Note: Only C1 symmetry has been detected, increase convergence thresholds
      if your molecule has a higher symmetry. Symmetry factor of 1.0 is
      used for the rotational entropy correction.

Note: Rotational entropy computed according to Herzberg
Infrared and Raman Spectra, Chapter V,1, Van Nostrand Reinhold, 1945
Point Group:  C1, Symmetry Number:   1
Rotational constants in cm-1:     0.185134     0.048985     0.039017

Vibrational entropy computed according to the QRRHO of S. Grimme
Chem.Eur.J. 2012 18 9955

-------
ENTROPY
-------

The entropy contributions are T*S = T*(S(el)+S(vib)+S(rot)+S(trans))
     S(el)   - electronic entropy
     S(vib)  - vibrational entropy
     S(rot)  - rotational entropy
     S(trans)- translational entropy
The entropies will be listed as multiplied by the temperature to get
units of energy

Electronic entropy                ...      0.00000000 Eh      0.00 kcal/mol
Vibrational entropy               ...      0.00559514 Eh      3.51 kcal/mol
Rotational entropy                ...      0.01326235 Eh      8.32 kcal/mol
Translational entropy             ...      0.01898207 Eh     11.91 kcal/mol
-----------------------------------------------------------------------
Final entropy term                ...      0.03783957 Eh     23.74 kcal/mol

In case the symmetry of your molecule has not been determined correctly
or in case you have a reason to use a different symmetry number we print
out the resulting rotational entropy values for sn=1,12 :
 --------------------------------------------------------
|  sn= 1 | S(rot)=       0.01326235 Eh      8.32 kcal/mol|
|  sn= 2 | S(rot)=       0.01260790 Eh      7.91 kcal/mol|
|  sn= 3 | S(rot)=       0.01222507 Eh      7.67 kcal/mol|
|  sn= 4 | S(rot)=       0.01195344 Eh      7.50 kcal/mol|
|  sn= 5 | S(rot)=       0.01174275 Eh      7.37 kcal/mol|
|  sn= 6 | S(rot)=       0.01157061 Eh      7.26 kcal/mol|
|  sn= 7 | S(rot)=       0.01142506 Eh      7.17 kcal/mol|
|  sn= 8 | S(rot)=       0.01129898 Eh      7.09 kcal/mol|
|  sn= 9 | S(rot)=       0.01118778 Eh      7.02 kcal/mol|
|  sn=10 | S(rot)=       0.01108830 Eh      6.96 kcal/mol|
|  sn=11 | S(rot)=       0.01099831 Eh      6.90 kcal/mol|
|  sn=12 | S(rot)=       0.01091615 Eh      6.85 kcal/mol|
 --------------------------------------------------------

-------------------
GIBBS FREE ENERGY
-------------------

The Gibbs free energy is G = H - T*S

Total enthalpy                    ...   -346.39284019 Eh

                             ****ORCA TERMINATED NORMALLY****
TOTAL RUN TIME: 0 days 0 hours 3 minutes 37 seconds 311 msec
