                         Program Version 5.0.4 -  RELEASE  -
|  1> %pal nprocs 24 end
|  2> %maxcore 3500
|  3> ! PBE0 D3BJ def2-TZVP TightSCF OPT FREQ TightOpt
|  4> ! CPCM(dmso)
|  5> %scf
|  6> MaxIter 800
|  7> end
|  8> %geom
|  9> MaxIter 800
| 10> MaxStep 0.2
| 11> end
| 12> *xyz -1 1
| 13>
| 14> C      -0.01761400     -0.55008800     -1.59649000
| 15> C      -0.01366200      0.66100200     -0.90291700
| 16> C      -0.01316000     -1.71011500     -0.82036100
| 17> H      -0.02492200      1.59009000     -1.46996400
| 18> H      -0.02400300     -2.67659000     -1.32101400
| 19> C       0.00113800      0.72026400      0.48085400
| 20> C       0.00161000     -1.67341100      0.56423100
| 21> H      -0.00151800      1.68545600      0.98181300
| 22> H      -0.00072000     -2.60218400      1.12992800
| 23> C       0.01232800     -0.44962800      1.29773500
| 24> O       0.02542700     -0.40464200      2.57866100
| 25> C       0.00788900     -0.60210400     -3.09675400
| 26> H       1.03033900     -0.62613100     -3.49266700
| 27> H      -0.50052000     -1.49359200     -3.47350500
| 28> H      -0.48261100      0.27177300     -3.53364300
| 29> *
| 30>
| 31>                          ****END OF INPUT****
 Total Charge           Charge          ....   -1
 Multiplicity           Mult            ....    1
 Number of Electrons    NEL             ....   58
Dispersion correction           -0.012689148
FINAL SINGLE POINT ENERGY      -346.043612755068
Dispersion correction            ... done
Dispersion correction           -0.012688579
FINAL SINGLE POINT ENERGY      -346.043613041889
Dispersion correction            ... done
                    ***********************HURRAY********************

CARTESIAN COORDINATES (ANGSTROEM)
---------------------------------
  C     -0.017424   -0.550079   -1.596826
  C     -0.013686    0.661039   -0.902949
  C     -0.012939   -1.710316   -0.820493
  H     -0.024937    1.590428   -1.469273
  H     -0.023565   -2.676924   -1.320621
  C      0.000944    0.720307    0.481171
  C      0.001668   -1.673481    0.564329
  H     -0.001878    1.685787    0.981323
  H     -0.000613   -2.602068    1.130114
  C      0.012272   -0.449621    1.297992
  O      0.025420   -0.404919    2.579168
  C      0.007845   -0.602097   -3.097126
  H      1.030123   -0.626975   -3.493156
  H     -0.501292   -1.493069   -3.473817
  H     -0.481936    0.272089   -3.533930

 Multiplicity           Mult            ....    1
 Number of Electrons    NEL             ....   58
 Basis Dimension        Dim             ....  290

ORBITAL ENERGIES
----------------

  NO   OCC          E(Eh)            E(eV)
   0   2.0000     -19.105950      -519.8993
   1   2.0000     -10.237115      -278.5661
   2   2.0000     -10.199486      -277.5421
   3   2.0000     -10.199135      -277.5326
   4   2.0000     -10.199097      -277.5315
   5   2.0000     -10.195963      -277.4463
   6   2.0000     -10.182970      -277.0927
   7   2.0000     -10.182880      -277.0903
   8   2.0000      -0.970215       -26.4009
   9   2.0000      -0.844545       -22.9812
  10   2.0000      -0.750832       -20.4312
  11   2.0000      -0.738214       -20.0878
  12   2.0000      -0.662237       -18.0204
  13   2.0000      -0.596365       -16.2279
  14   2.0000      -0.562615       -15.3095
  15   2.0000      -0.473408       -12.8821
  16   2.0000      -0.457461       -12.4481
  17   2.0000      -0.435624       -11.8539
  18   2.0000      -0.415198       -11.2981
  19   2.0000      -0.399131       -10.8609
  20   2.0000      -0.383715       -10.4414
  21   2.0000      -0.380687       -10.3590
  22   2.0000      -0.370448       -10.0804
  23   2.0000      -0.338984        -9.2242
  24   2.0000      -0.324178        -8.8213
  25   2.0000      -0.296469        -8.0673
  26   2.0000      -0.243784        -6.6337
  27   2.0000      -0.214830        -5.8458
  28   2.0000      -0.170901        -4.6505
  29   0.0000       0.015830         0.4308
  30   0.0000       0.046966         1.2780
  31   0.0000       0.070356         1.9145
  32   0.0000       0.093646         2.5482
  33   0.0000       0.102424         2.7871

MULLIKEN ATOMIC CHARGES
-----------------------
   0 C :    0.110033
   1 C :   -0.250442
   2 C :   -0.250761
   3 H :    0.122386
   4 H :    0.122354
   5 C :   -0.282546
   6 C :   -0.282237
   7 H :    0.093067
   8 H :    0.092936
   9 C :    0.231850
  10 O :   -0.684314
  11 C :   -0.415790
  12 H :    0.126847
  13 H :    0.133280
  14 H :    0.133337
Sum of atomic charges:   -1.0000000

LOEWDIN ATOMIC CHARGES
----------------------
   0 C :   -0.243161
   1 C :   -0.171238
   2 C :   -0.170972
   3 H :    0.144466
   4 H :    0.144496
   5 C :   -0.198157
   6 C :   -0.198017
   7 H :    0.133013
   8 H :    0.133017
   9 C :   -0.445043
  10 O :   -0.219345
  11 C :   -0.286038
  12 H :    0.123614
  13 H :    0.126647
  14 H :    0.126718

  Mayer bond orders larger than 0.100000
B(  0-C ,  1-C ) :   1.3433 B(  0-C ,  2-C ) :   1.3415 B(  0-C , 11-C ) :   0.9339
B(  1-C ,  3-H ) :   0.9712 B(  1-C ,  5-C ) :   1.4016 B(  2-C ,  4-H ) :   0.9718
B(  2-C ,  6-C ) :   1.4022 B(  5-C ,  7-H ) :   0.9903 B(  5-C ,  9-C ) :   1.2207
B(  6-C ,  8-H ) :   0.9902 B(  6-C ,  9-C ) :   1.2205 B(  9-C , 10-O ) :   1.6621
B( 11-C , 12-H ) :   0.9543 B( 11-C , 13-H ) :   0.9823 B( 11-C , 14-H ) :   0.9827

Dispersion correction           -0.012688126
FINAL SINGLE POINT ENERGY      -346.043613131530

DIPOLE MOMENT
-------------
                                X             Y             Z
Electronic contribution:     -0.00711       0.19462       5.63038
Nuclear contribution   :     -0.01247      -0.32245      -9.28665
                        -----------------------------------------
Total Dipole Moment    :     -0.01958      -0.12783      -3.65626
                        -----------------------------------------
Magnitude (a.u.)       :      3.65855
Magnitude (Debye)      :      9.29930

Dispersion correction in the Hessian             ... done   (      0.2 sec)

VIBRATIONAL FREQUENCIES
-----------------------

Scaling factor for frequencies =  1.000000000  (already applied!)

   0:         0.00 cm**-1
   1:         0.00 cm**-1
   2:         0.00 cm**-1
   3:         0.00 cm**-1
   4:         0.00 cm**-1
   5:         0.00 cm**-1
   6:       -19.11 cm**-1 ***imaginary mode***
   7:       131.02 cm**-1
   8:       301.11 cm**-1
   9:       305.12 cm**-1
  10:       428.76 cm**-1
  11:       457.34 cm**-1
  12:       468.51 cm**-1
  13:       516.28 cm**-1
  14:       647.68 cm**-1
  15:       725.69 cm**-1
  16:       762.95 cm**-1
  17:       810.60 cm**-1
  18:       846.09 cm**-1
  19:       853.14 cm**-1
  20:       933.86 cm**-1
  21:       952.50 cm**-1
  22:       990.42 cm**-1
  23:      1003.27 cm**-1
  24:      1051.61 cm**-1
  25:      1106.92 cm**-1
  26:      1167.89 cm**-1
  27:      1242.14 cm**-1
  28:      1269.55 cm**-1
  29:      1323.03 cm**-1
  30:      1388.76 cm**-1
  31:      1392.97 cm**-1
  32:      1445.73 cm**-1
  33:      1459.06 cm**-1
  34:      1473.84 cm**-1
  35:      1539.37 cm**-1
  36:      1574.40 cm**-1
  37:      1655.48 cm**-1
  38:      3018.21 cm**-1
  39:      3077.41 cm**-1
  40:      3112.19 cm**-1
  41:      3137.94 cm**-1
  42:      3138.55 cm**-1
  43:      3159.39 cm**-1
  44:      3163.93 cm**-1

IR SPECTRUM
-----------

 Mode   freq       eps      Int      T**2         TX        TY        TZ
       cm**-1   L/(mol*cm) km/mol    a.u.
----------------------------------------------------------------------------
  7:    131.02   0.000238    1.20  0.000568  (-0.023462  0.000025  0.004174)
  8:    301.11   0.001969    9.95  0.002041  ( 0.044901  0.000032  0.004945)
  9:    305.12   0.000010    0.05  0.000010  (-0.001374 -0.002786 -0.000795)
 10:    428.76   0.000003    0.02  0.000002  ( 0.000676  0.001411  0.000052)
 11:    457.34   0.001250    6.32  0.000853  ( 0.000170  0.029204  0.000354)
 12:    468.51   0.003121   15.77  0.002079  ( 0.001473 -0.001235 -0.045551)
 13:    516.28   0.008103   40.95  0.004898  ( 0.069938 -0.000191 -0.002492)
 14:    647.68   0.000001    0.01  0.000001  (-0.000031 -0.000728 -0.000037)
 15:    725.69   0.001285    6.49  0.000553  ( 0.023250  0.000146  0.003467)
 16:    762.95   0.008016   40.51  0.003279  (-0.000358 -0.002019 -0.057225)
 17:    810.60   0.000019    0.10  0.000007  (-0.000376  0.002698 -0.000029)
 18:    846.09   0.020422  103.21  0.007532  (-0.086789 -0.000022  0.000196)
 19:    853.14   0.000071    0.36  0.000026  ( 0.003600 -0.000041 -0.003585)
 20:    933.86   0.000152    0.77  0.000051  (-0.002647 -0.000179 -0.006603)
 21:    952.50   0.000009    0.05  0.000003  ( 0.000216 -0.001733  0.000142)
 22:    990.42   0.000232    1.17  0.000073  (-0.000044  0.008532  0.000538)
 23:   1003.27   0.003800   19.20  0.001182  (-0.001107  0.000754  0.034352)
 24:   1051.61   0.004337   21.92  0.001287  ( 0.016780 -0.001118 -0.031691)
 25:   1106.92   0.008604   43.48  0.002426  ( 0.000042 -0.049227  0.001531)
 26:   1167.89   0.009491   47.97  0.002536  ( 0.000369  0.001335  0.050341)
 27:   1242.14   0.000416    2.10  0.000105  ( 0.002427  0.000273  0.009931)
 28:   1269.55   0.002169   10.96  0.000533  ( 0.000007 -0.023022  0.001755)
 29:   1323.03   0.006234   31.50  0.001470  ( 0.000005  0.038312 -0.001604)
 30:   1388.76   0.075892  383.53  0.017053  ( 0.001351  0.004036  0.130520)
 31:   1392.97   0.001282    6.48  0.000287  (-0.002741 -0.000209 -0.016720)
 32:   1445.73   0.008308   41.98  0.001793  (-0.000015 -0.042339 -0.000773)
 33:   1459.06   0.001876    9.48  0.000401  ( 0.019987 -0.000047  0.001282)
 34:   1473.84   0.000004    0.02  0.000001  (-0.000093  0.000116 -0.000906)
 35:   1539.37   0.157558  796.24  0.031940  ( 0.001279  0.006111  0.178610)
 36:   1574.40   0.011458   57.91  0.002271  ( 0.000013 -0.047602  0.002280)
 37:   1655.48   0.046157  233.26  0.008701  (-0.001560 -0.003392 -0.093203)
 38:   3018.21   0.023040  116.44  0.002382  ( 0.013226 -0.001759 -0.046949)
 39:   3077.41   0.007914   39.99  0.000803  ( 0.026591  0.000432  0.009760)
 40:   3112.19   0.007003   35.39  0.000702  (-0.000005  0.026486 -0.000814)
 41:   3137.94   0.002687   13.58  0.000267  ( 0.000118 -0.014812  0.006912)
 42:   3138.55   0.015036   75.99  0.001495  (-0.000604 -0.003658 -0.038487)
 43:   3159.39   0.022983  116.15  0.002270  ( 0.000023 -0.047624  0.001422)
 44:   3163.93   0.001502    7.59  0.000148  (-0.000213 -0.000791  0.012144)

--------------------------
THERMOCHEMISTRY AT 298.15K
--------------------------

Temperature         ... 298.15 K
Pressure            ... 1.00 atm
Total Mass          ... 107.13 AMU

Throughout the following assumptions are being made:
  (1) The electronic state is orbitally nondegenerate
  (2) There are no thermally accessible electronically excited states
  (3) Hindered rotations indicated by low frequency modes are not
      treated as such but are treated as vibrations and this may
      cause some error
  (4) All equations used are the standard statistical mechanics
      equations for an ideal gas
  (5) All vibrations are strictly harmonic

freq.     131.02  E(vib)   ...       0.42
freq.     301.11  E(vib)   ...       0.26
freq.     305.12  E(vib)   ...       0.26
freq.     428.76  E(vib)   ...       0.18
freq.     457.34  E(vib)   ...       0.16
freq.     468.51  E(vib)   ...       0.16
freq.     516.28  E(vib)   ...       0.13
freq.     647.68  E(vib)   ...       0.09
freq.     725.69  E(vib)   ...       0.06
freq.     762.95  E(vib)   ...       0.06
freq.     810.60  E(vib)   ...       0.05
freq.     846.09  E(vib)   ...       0.04
freq.     853.14  E(vib)   ...       0.04
freq.     933.86  E(vib)   ...       0.03
freq.     952.50  E(vib)   ...       0.03
freq.     990.42  E(vib)   ...       0.02
freq.    1003.27  E(vib)   ...       0.02
freq.    1051.61  E(vib)   ...       0.02
freq.    1106.92  E(vib)   ...       0.02
freq.    1167.89  E(vib)   ...       0.01
freq.    1242.14  E(vib)   ...       0.01
freq.    1269.55  E(vib)   ...       0.01
freq.    1323.03  E(vib)   ...       0.01
freq.    1388.76  E(vib)   ...       0.00
freq.    1392.97  E(vib)   ...       0.00
freq.    1445.73  E(vib)   ...       0.00
freq.    1459.06  E(vib)   ...       0.00
freq.    1473.84  E(vib)   ...       0.00
freq.    1539.37  E(vib)   ...       0.00
freq.    1574.40  E(vib)   ...       0.00
freq.    1655.48  E(vib)   ...       0.00
freq.    3018.21  E(vib)   ...       0.00
freq.    3077.41  E(vib)   ...       0.00
freq.    3112.19  E(vib)   ...       0.00
freq.    3137.94  E(vib)   ...       0.00
freq.    3138.55  E(vib)   ...       0.00
freq.    3159.39  E(vib)   ...       0.00
freq.    3163.93  E(vib)   ...       0.00

------------
INNER ENERGY
------------

The inner energy is: U= E(el) + E(ZPE) + E(vib) + E(rot) + E(trans)
    E(el)   - is the total energy from the electronic structure calculation
              = E(kin-el) + E(nuc-el) + E(el-el) + E(nuc-nuc)
    E(ZPE)  - the the zero temperature vibrational energy from the frequency calculation
    E(vib)  - the the finite temperature correction to E(ZPE) due to population
              of excited vibrational states
    E(rot)  - is the rotational thermal energy
    E(trans)- is the translational thermal energy

Summary of contributions to the inner energy U:
Electronic energy                ...   -346.04361313 Eh
Zero point energy                ...      0.11853924 Eh      74.38 kcal/mol
Thermal vibrational correction   ...      0.00336459 Eh       2.11 kcal/mol
Thermal rotational correction    ...      0.00141627 Eh       0.89 kcal/mol
Thermal translational correction ...      0.00141627 Eh       0.89 kcal/mol
-----------------------------------------------------------------------
Total thermal energy                   -345.91887676 Eh

Summary of corrections to the electronic energy:
(perhaps to be used in another calculation)
Total thermal correction                  0.00619714 Eh       3.89 kcal/mol
Non-thermal (ZPE) correction              0.11853924 Eh      74.38 kcal/mol
-----------------------------------------------------------------------
Total correction                          0.12473637 Eh      78.27 kcal/mol

--------
ENTHALPY
--------

The enthalpy is H = U + kB*T
                kB is Boltzmann's constant
Total free energy                 ...   -345.91887676 Eh
Thermal Enthalpy correction       ...      0.00094421 Eh       0.59 kcal/mol
-----------------------------------------------------------------------
Total Enthalpy                    ...   -345.91793255 Eh

Note: Only C1 symmetry has been detected, increase convergence thresholds
      if your molecule has a higher symmetry. Symmetry factor of 1.0 is
      used for the rotational entropy correction.

Note: Rotational entropy computed according to Herzberg
Infrared and Raman Spectra, Chapter V,1, Van Nostrand Reinhold, 1945
Point Group:  C1, Symmetry Number:   1
Rotational constants in cm-1:     0.187563     0.049763     0.039619

Vibrational entropy computed according to the QRRHO of S. Grimme
Chem.Eur.J. 2012 18 9955

-------
ENTROPY
-------

The entropy contributions are T*S = T*(S(el)+S(vib)+S(rot)+S(trans))
     S(el)   - electronic entropy
     S(vib)  - vibrational entropy
     S(rot)  - rotational entropy
     S(trans)- translational entropy
The entropies will be listed as multiplied by the temperature to get
units of energy

Electronic entropy                ...      0.00000000 Eh      0.00 kcal/mol
Vibrational entropy               ...      0.00517392 Eh      3.25 kcal/mol
Rotational entropy                ...      0.01324154 Eh      8.31 kcal/mol
Translational entropy             ...      0.01896881 Eh     11.90 kcal/mol
-----------------------------------------------------------------------
Final entropy term                ...      0.03738428 Eh     23.46 kcal/mol

In case the symmetry of your molecule has not been determined correctly
or in case you have a reason to use a different symmetry number we print
out the resulting rotational entropy values for sn=1,12 :
 --------------------------------------------------------
|  sn= 1 | S(rot)=       0.01324154 Eh      8.31 kcal/mol|
|  sn= 2 | S(rot)=       0.01258709 Eh      7.90 kcal/mol|
|  sn= 3 | S(rot)=       0.01220425 Eh      7.66 kcal/mol|
|  sn= 4 | S(rot)=       0.01193263 Eh      7.49 kcal/mol|
|  sn= 5 | S(rot)=       0.01172194 Eh      7.36 kcal/mol|
|  sn= 6 | S(rot)=       0.01154980 Eh      7.25 kcal/mol|
|  sn= 7 | S(rot)=       0.01140425 Eh      7.16 kcal/mol|
|  sn= 8 | S(rot)=       0.01127817 Eh      7.08 kcal/mol|
|  sn= 9 | S(rot)=       0.01116697 Eh      7.01 kcal/mol|
|  sn=10 | S(rot)=       0.01106749 Eh      6.94 kcal/mol|
|  sn=11 | S(rot)=       0.01097750 Eh      6.89 kcal/mol|
|  sn=12 | S(rot)=       0.01089534 Eh      6.84 kcal/mol|
 --------------------------------------------------------

-------------------
GIBBS FREE ENERGY
-------------------

The Gibbs free energy is G = H - T*S

Total enthalpy                    ...   -345.91793255 Eh
Total entropy correction          ...     -0.03738428 Eh    -23.46 kcal/mol
-----------------------------------------------------------------------
Final Gibbs free energy         ...   -345.95531683 Eh

                             ****ORCA TERMINATED NORMALLY****
TOTAL RUN TIME: 0 days 0 hours 3 minutes 33 seconds 173 msec
