                         Program Version 5.0.4 -  RELEASE  -
|  1> %pal nprocs 24 end
|  2> %maxcore 3500
|  3> ! PBE0 D3BJ def2-TZVP TightSCF OPT FREQ TightOpt
|  4> ! CPCM(dmso)
|  5> %scf
|  6> MaxIter 800
|  7> end
|  8> %geom
|  9> MaxIter 800
| 10> MaxStep 0.2
| 11> end
| 12> *xyz -1 1
| 13>
| 14> C       0.00382600     -0.86400100     -1.69811200
| 15> C      -0.00268900      0.44127800     -1.20925100
| 16> C       0.00647400     -1.92128700     -0.79181000
| 17> H      -0.00443400      1.28095800     -1.89922700
| 18> H       0.01192000     -2.93824600     -1.17271100
| 19> C      -0.00694400      0.68175800      0.15099700
| 20> C       0.00231700     -1.68514100      0.56844700
| 21> H      -0.01209000      1.70661400      0.51148700
| 22> H       0.00438600     -2.52453000      1.25810700
| 23> C      -0.00468000     -0.36724200      1.12247700
| 24> O      -0.00869900     -0.14368200      2.37938100
| 25> N       0.00888300     -1.19104800     -3.08122800
| 26> N       0.00379600     -0.29677600     -3.90118900
| 27> N      -0.00206500      0.46323400     -4.73992400
| 28> *
| 29>
| 30>                          ****END OF INPUT****
 Total Charge           Charge          ....   -1
 Multiplicity           Mult            ....    1
 Number of Electrons    NEL             ....   70
Dispersion correction           -0.013468533
FINAL SINGLE POINT ENERGY      -470.249449142056
Dispersion correction            ... done
Dispersion correction           -0.013467176
FINAL SINGLE POINT ENERGY      -470.249449568929
Dispersion correction            ... done
                    ***********************HURRAY********************

CARTESIAN COORDINATES (ANGSTROEM)
---------------------------------
  C      0.003398   -0.863833   -1.698261
  C     -0.003320    0.441520   -1.209122
  C      0.006318   -1.921286   -0.791874
  H     -0.005541    1.281222   -1.898981
  H      0.011559   -2.938268   -1.172475
  C     -0.007087    0.681895    0.151324
  C      0.002563   -1.685217    0.568669
  H     -0.012276    1.706590    0.512063
  H      0.004859   -2.524793    1.257991
  C     -0.004295   -0.367288    1.122918
  O     -0.007923   -0.143622    2.379904
  N      0.007640   -1.190909   -3.081555
  N      0.004239   -0.296878   -3.902026
  N     -0.000134    0.462758   -4.741129

 Multiplicity           Mult            ....    1
 Number of Electrons    NEL             ....   70
 Basis Dimension        Dim             ....  334

ORBITAL ENERGIES
----------------

  NO   OCC          E(Eh)            E(eV)
   0   2.0000     -19.114000      -520.1184
   1   2.0000     -14.548962      -395.8974
   2   2.0000     -14.442444      -392.9989
   3   2.0000     -14.432148      -392.7187
   4   2.0000     -10.246938      -278.8334
   5   2.0000     -10.246553      -278.8229
   6   2.0000     -10.214336      -277.9462
   7   2.0000     -10.211991      -277.8824
   8   2.0000     -10.194278      -277.4004
   9   2.0000     -10.192890      -277.3626
  10   2.0000      -1.174618       -31.9630
  11   2.0000      -1.015253       -27.6264
  12   2.0000      -0.980249       -26.6739
  13   2.0000      -0.856973       -23.3194
  14   2.0000      -0.755143       -20.5485
  15   2.0000      -0.745656       -20.2903
  16   2.0000      -0.631646       -17.1880
  17   2.0000      -0.611741       -16.6463
  18   2.0000      -0.559400       -15.2221
  19   2.0000      -0.533067       -14.5055
  20   2.0000      -0.528010       -14.3679
  21   2.0000      -0.473581       -12.8868
  22   2.0000      -0.456681       -12.4269
  23   2.0000      -0.453111       -12.3298
  24   2.0000      -0.424936       -11.5631
  25   2.0000      -0.414901       -11.2900
  26   2.0000      -0.393828       -10.7166
  27   2.0000      -0.370181       -10.0731
  28   2.0000      -0.350017        -9.5244
  29   2.0000      -0.344347        -9.3702
  30   2.0000      -0.314835        -8.5671
  31   2.0000      -0.274142        -7.4598
  32   2.0000      -0.255703        -6.9580
  33   2.0000      -0.222371        -6.0510
  34   2.0000      -0.173102        -4.7104
  35   0.0000      -0.017076        -0.4647
  36   0.0000       0.000160         0.0044
  37   0.0000       0.011801         0.3211
  38   0.0000       0.074850         2.0368
  39   0.0000       0.084789         2.3072

MULLIKEN ATOMIC CHARGES
-----------------------
   0 C :    0.240908
   1 C :   -0.279493
   2 C :   -0.283101
   3 H :    0.138636
   4 H :    0.127250
   5 C :   -0.279783
   6 C :   -0.268715
   7 H :    0.106976
   8 H :    0.104660
   9 C :    0.237230
  10 O :   -0.659704
  11 N :   -0.354798
  12 N :    0.440208
  13 N :   -0.270273
Sum of atomic charges:   -1.0000000

LOEWDIN ATOMIC CHARGES
----------------------
   0 C :   -0.288943
   1 C :   -0.165886
   2 C :   -0.159592
   3 H :    0.149495
   4 H :    0.149793
   5 C :   -0.180864
   6 C :   -0.183059
   7 H :    0.138578
   8 H :    0.138365
   9 C :   -0.437032
  10 O :   -0.194517
  11 N :    0.031401
  12 N :    0.078147
  13 N :   -0.075885

  Mayer bond orders larger than 0.100000
B(  0-C ,  1-C ) :   1.3089 B(  0-C ,  2-C ) :   1.3244 B(  0-C , 11-N ) :   1.0157
B(  1-C ,  3-H ) :   0.9585 B(  1-C ,  5-C ) :   1.4063 B(  2-C ,  4-H ) :   0.9722
B(  2-C ,  6-C ) :   1.4173 B(  5-C ,  7-H ) :   0.9785 B(  5-C ,  9-C ) :   1.2158
B(  6-C ,  8-H ) :   0.9879 B(  6-C ,  9-C ) :   1.2102 B(  9-C , 10-O ) :   1.6887
B( 11-N , 12-N ) :   1.4448 B( 11-N , 13-N ) :   0.3444 B( 12-N , 13-N ) :   1.9263

Dispersion correction           -0.013466884
FINAL SINGLE POINT ENERGY      -470.249449654020

DIPOLE MOMENT
-------------
                                X             Y             Z
Electronic contribution:      0.01055       0.15279      -6.46605
Nuclear contribution   :     -0.00157      -0.53101       2.97504
                        -----------------------------------------
Total Dipole Moment    :      0.00898      -0.37822      -3.49101
                        -----------------------------------------
Magnitude (a.u.)       :      3.51145
Magnitude (Debye)      :      8.92540

Dispersion correction in the Hessian             ... done   (      0.2 sec)

VIBRATIONAL FREQUENCIES
-----------------------

Scaling factor for frequencies =  1.000000000  (already applied!)

   0:         0.00 cm**-1
   1:         0.00 cm**-1
   2:         0.00 cm**-1
   3:         0.00 cm**-1
   4:         0.00 cm**-1
   5:         0.00 cm**-1
   6:        61.49 cm**-1
   7:       135.06 cm**-1
   8:       148.87 cm**-1
   9:       336.49 cm**-1
  10:       346.07 cm**-1
  11:       431.92 cm**-1
  12:       433.78 cm**-1
  13:       472.75 cm**-1
  14:       511.69 cm**-1
  15:       553.12 cm**-1
  16:       643.45 cm**-1
  17:       659.35 cm**-1
  18:       728.01 cm**-1
  19:       802.79 cm**-1
  20:       809.39 cm**-1
  21:       850.96 cm**-1
  22:       856.31 cm**-1
  23:       939.14 cm**-1
  24:       954.35 cm**-1
  25:      1002.30 cm**-1
  26:      1110.06 cm**-1
  27:      1167.38 cm**-1
  28:      1182.15 cm**-1
  29:      1272.78 cm**-1
  30:      1325.36 cm**-1
  31:      1383.87 cm**-1
  32:      1418.37 cm**-1
  33:      1469.05 cm**-1
  34:      1538.35 cm**-1
  35:      1578.96 cm**-1
  36:      1647.04 cm**-1
  37:      2246.72 cm**-1
  38:      3160.47 cm**-1
  39:      3164.93 cm**-1
  40:      3178.14 cm**-1
  41:      3185.03 cm**-1

IR SPECTRUM
-----------

 Mode   freq       eps      Int      T**2         TX        TY        TZ
       cm**-1   L/(mol*cm) km/mol    a.u.
----------------------------------------------------------------------------
  6:     61.49   0.000620    3.13  0.003148  ( 0.056110  0.000314  0.000009)
  7:    135.06   0.000518    2.62  0.001196  ( 0.000019 -0.032107 -0.012864)
  8:    148.87   0.001018    5.15  0.002134  ( 0.046198  0.000126  0.000092)
  9:    336.49   0.000257    1.30  0.000239  ( 0.015442  0.000212 -0.000174)
 10:    346.07   0.001327    6.70  0.001196  ( 0.000131 -0.023284  0.025577)
 11:    431.92   0.005419   27.38  0.003915  ( 0.000013 -0.014401  0.060890)
 12:    433.78   0.000001    0.01  0.000001  ( 0.000017 -0.000184  0.000903)
 13:    472.75   0.000872    4.41  0.000576  ( 0.000126 -0.018514 -0.015266)
 14:    511.69   0.007134   36.05  0.004351  ( 0.065959  0.000278  0.000182)
 15:    553.12   0.002283   11.54  0.001288  ( 0.035889  0.000188  0.000309)
 16:    643.45   0.000345    1.74  0.000167  (-0.000009  0.002717 -0.012649)
 17:    659.35   0.025353  128.12  0.011999  (-0.000137 -0.013093  0.108756)
 18:    728.01   0.001148    5.80  0.000492  ( 0.022186  0.000076  0.000035)
 19:    802.79   0.000064    0.32  0.000025  (-0.004980  0.000111 -0.000044)
 20:    809.39   0.005254   26.55  0.002026  ( 0.000278 -0.044931  0.002641)
 21:    850.96   0.023511  118.82  0.008622  ( 0.092854  0.000361  0.000135)
 22:    856.31   0.000447    2.26  0.000163  (-0.000184 -0.012584 -0.002156)
 23:    939.14   0.000362    1.83  0.000120  (-0.010966 -0.000036  0.000012)
 24:    954.35   0.000133    0.67  0.000044  ( 0.006601  0.000030 -0.000041)
 25:   1002.30   0.003373   17.05  0.001050  ( 0.000085 -0.003257 -0.032242)
 26:   1110.06   0.011822   59.74  0.003323  (-0.000170  0.049176 -0.030084)
 27:   1167.38   0.008831   44.63  0.002361  (-0.000037 -0.000981  0.048577)
 28:   1182.15   0.007213   36.45  0.001904  (-0.000191  0.020503  0.038520)
 29:   1272.78   0.001557    7.87  0.000382  (-0.000089  0.017969  0.007667)
 30:   1325.36   0.006849   34.61  0.001613  (-0.000139  0.025993  0.030610)
 31:   1383.87   0.053621  270.98  0.012092  (-0.000007 -0.025666  0.106924)
 32:   1418.37   0.028981  146.46  0.006376  ( 0.000336 -0.029424 -0.074233)
 33:   1469.05   0.010470   52.91  0.002224  (-0.000213  0.046744 -0.006249)
 34:   1538.35   0.236346  1194.40  0.047944  ( 0.000472 -0.018394 -0.218188)
 35:   1578.96   0.008787   44.41  0.001737  (-0.000155  0.025357  0.033071)
 36:   1647.04   0.071657  362.13  0.013577  (-0.000232  0.005682  0.116381)
 37:   2246.72   0.471703  2383.79  0.065518  ( 0.000356 -0.119956  0.226116)
 38:   3160.47   0.006557   33.14  0.000647  ( 0.000081 -0.008245 -0.024072)
 39:   3164.93   0.006040   30.52  0.000596  ( 0.000011  0.007642 -0.023175)
 40:   3178.14   0.006920   34.97  0.000679  (-0.000113  0.025815  0.003609)
 41:   3185.03   0.003845   19.43  0.000377  (-0.000076  0.018603 -0.005531)

--------------------------
THERMOCHEMISTRY AT 298.15K
--------------------------

Temperature         ... 298.15 K
Pressure            ... 1.00 atm
Total Mass          ... 134.12 AMU

Throughout the following assumptions are being made:
  (1) The electronic state is orbitally nondegenerate
  (2) There are no thermally accessible electronically excited states
  (3) Hindered rotations indicated by low frequency modes are not
      treated as such but are treated as vibrations and this may
      cause some error
  (4) All equations used are the standard statistical mechanics
      equations for an ideal gas
  (5) All vibrations are strictly harmonic

freq.      61.49  E(vib)   ...       0.51
freq.     135.06  E(vib)   ...       0.42
freq.     148.87  E(vib)   ...       0.40
freq.     336.49  E(vib)   ...       0.24
freq.     346.07  E(vib)   ...       0.23
freq.     431.92  E(vib)   ...       0.18
freq.     433.78  E(vib)   ...       0.17
freq.     472.75  E(vib)   ...       0.15
freq.     511.69  E(vib)   ...       0.14
freq.     553.12  E(vib)   ...       0.12
freq.     643.45  E(vib)   ...       0.09
freq.     659.35  E(vib)   ...       0.08
freq.     728.01  E(vib)   ...       0.06
freq.     802.79  E(vib)   ...       0.05
freq.     809.39  E(vib)   ...       0.05
freq.     850.96  E(vib)   ...       0.04
freq.     856.31  E(vib)   ...       0.04
freq.     939.14  E(vib)   ...       0.03
freq.     954.35  E(vib)   ...       0.03
freq.    1002.30  E(vib)   ...       0.02
freq.    1110.06  E(vib)   ...       0.02
freq.    1167.38  E(vib)   ...       0.01
freq.    1182.15  E(vib)   ...       0.01
freq.    1272.78  E(vib)   ...       0.01
freq.    1325.36  E(vib)   ...       0.01
freq.    1383.87  E(vib)   ...       0.00
freq.    1418.37  E(vib)   ...       0.00
freq.    1469.05  E(vib)   ...       0.00
freq.    1538.35  E(vib)   ...       0.00
freq.    1578.96  E(vib)   ...       0.00
freq.    1647.04  E(vib)   ...       0.00
freq.    2246.72  E(vib)   ...       0.00
freq.    3160.47  E(vib)   ...       0.00
freq.    3164.93  E(vib)   ...       0.00
freq.    3178.14  E(vib)   ...       0.00
freq.    3185.03  E(vib)   ...       0.00

------------
INNER ENERGY
------------

The inner energy is: U= E(el) + E(ZPE) + E(vib) + E(rot) + E(trans)
    E(el)   - is the total energy from the electronic structure calculation
              = E(kin-el) + E(nuc-el) + E(el-el) + E(nuc-nuc)
    E(ZPE)  - the the zero temperature vibrational energy from the frequency calculation
    E(vib)  - the the finite temperature correction to E(ZPE) due to population
              of excited vibrational states
    E(rot)  - is the rotational thermal energy
    E(trans)- is the translational thermal energy

Summary of contributions to the inner energy U:
Electronic energy                ...   -470.24944965 Eh
Zero point energy                ...      0.09501313 Eh      59.62 kcal/mol
Thermal vibrational correction   ...      0.00496734 Eh       3.12 kcal/mol
Thermal rotational correction    ...      0.00141627 Eh       0.89 kcal/mol
Thermal translational correction ...      0.00141627 Eh       0.89 kcal/mol
-----------------------------------------------------------------------
Total thermal energy                   -470.14663663 Eh

Summary of corrections to the electronic energy:
(perhaps to be used in another calculation)
Total thermal correction                  0.00779989 Eh       4.89 kcal/mol
Non-thermal (ZPE) correction              0.09501313 Eh      59.62 kcal/mol
-----------------------------------------------------------------------
Total correction                          0.10281302 Eh      64.52 kcal/mol

--------
ENTHALPY
--------

The enthalpy is H = U + kB*T
                kB is Boltzmann's constant
Total free energy                 ...   -470.14663663 Eh
Thermal Enthalpy correction       ...      0.00094421 Eh       0.59 kcal/mol
-----------------------------------------------------------------------
Total Enthalpy                    ...   -470.14569242 Eh

Note: Only C1 symmetry has been detected, increase convergence thresholds
      if your molecule has a higher symmetry. Symmetry factor of 1.0 is
      used for the rotational entropy correction.

Note: Rotational entropy computed according to Herzberg
Infrared and Raman Spectra, Chapter V,1, Van Nostrand Reinhold, 1945
Point Group:  C1, Symmetry Number:   1
Rotational constants in cm-1:     0.153933     0.025096     0.021578

Vibrational entropy computed according to the QRRHO of S. Grimme
Chem.Eur.J. 2012 18 9955

-------
ENTROPY
-------

The entropy contributions are T*S = T*(S(el)+S(vib)+S(rot)+S(trans))
     S(el)   - electronic entropy
     S(vib)  - vibrational entropy
     S(rot)  - rotational entropy
     S(trans)- translational entropy
The entropies will be listed as multiplied by the temperature to get
units of energy

Electronic entropy                ...      0.00000000 Eh      0.00 kcal/mol
Vibrational entropy               ...      0.00822111 Eh      5.16 kcal/mol
Rotational entropy                ...      0.01394485 Eh      8.75 kcal/mol
Translational entropy             ...      0.01928699 Eh     12.10 kcal/mol
-----------------------------------------------------------------------
Final entropy term                ...      0.04145294 Eh     26.01 kcal/mol

In case the symmetry of your molecule has not been determined correctly
or in case you have a reason to use a different symmetry number we print
out the resulting rotational entropy values for sn=1,12 :
 --------------------------------------------------------
|  sn= 1 | S(rot)=       0.01394485 Eh      8.75 kcal/mol|
|  sn= 2 | S(rot)=       0.01329039 Eh      8.34 kcal/mol|
|  sn= 3 | S(rot)=       0.01290756 Eh      8.10 kcal/mol|
|  sn= 4 | S(rot)=       0.01263593 Eh      7.93 kcal/mol|
|  sn= 5 | S(rot)=       0.01242525 Eh      7.80 kcal/mol|
|  sn= 6 | S(rot)=       0.01225310 Eh      7.69 kcal/mol|
|  sn= 7 | S(rot)=       0.01210756 Eh      7.60 kcal/mol|
|  sn= 8 | S(rot)=       0.01198148 Eh      7.52 kcal/mol|
|  sn= 9 | S(rot)=       0.01187027 Eh      7.45 kcal/mol|
|  sn=10 | S(rot)=       0.01177079 Eh      7.39 kcal/mol|
|  sn=11 | S(rot)=       0.01168080 Eh      7.33 kcal/mol|
|  sn=12 | S(rot)=       0.01159865 Eh      7.28 kcal/mol|
 --------------------------------------------------------

-------------------
GIBBS FREE ENERGY
-------------------

The Gibbs free energy is G = H - T*S

Total enthalpy                    ...   -470.14569242 Eh
Total entropy correction          ...     -0.04145294 Eh    -26.01 kcal/mol
-----------------------------------------------------------------------
Final Gibbs free energy         ...   -470.18714537 Eh

For completeness - the Gibbs free energy minus the electronic energy

                             ****ORCA TERMINATED NORMALLY****
TOTAL RUN TIME: 0 days 0 hours 4 minutes 17 seconds 84 msec
