                         Program Version 5.0.4 -  RELEASE  -
|  1> %pal nprocs 24 end
|  2> %maxcore 3500
|  3> ! PBE0 D3BJ def2-TZVP TightSCF OPT FREQ TightOpt
|  4> ! CPCM(dmso)
|  5> %scf
|  6> MaxIter 800
|  7> end
|  8> %geom
|  9> MaxIter 800
| 10> MaxStep 0.2
| 11> end
| 12> *xyz 0 1
| 13>
| 14> C      -0.07703200     -0.84030700     -1.67760500
| 15> C       0.11397100      0.44003600     -1.16970400
| 16> C      -0.21161500     -1.91459400     -0.80418300
| 17> H       0.21985200      1.28998000     -1.83494800
| 18> H      -0.36046100     -2.90992400     -1.20597900
| 19> C       0.16993900      0.64109400      0.19972400
| 20> C      -0.15583900     -1.71423500      0.56214600
| 21> H       0.31841800      1.64099400      0.59463500
| 22> H      -0.26029800     -2.54860900      1.24583900
| 23> C       0.03598600     -0.43370600      1.07205700
| 24> O       0.08391200     -0.29029700      2.41840000
| 25> H       0.22017100      0.63737900      2.64330300
| 26> N      -0.14768100     -1.13793100     -3.05892600
| 27> N      -0.02453400     -0.22575400     -3.85871500
| 28> N       0.07521100      0.53325500     -4.68400000
| 29> *
| 30>
| 31>                          ****END OF INPUT****
 Total Charge           Charge          ....    0
 Multiplicity           Mult            ....    1
 Number of Electrons    NEL             ....   70
Dispersion correction           -0.014070310
FINAL SINGLE POINT ENERGY      -470.733368459367
Dispersion correction            ... done
                    ***********************HURRAY********************

CARTESIAN COORDINATES (ANGSTROEM)
---------------------------------
  C     -0.077161   -0.840471   -1.677743
  C      0.113865    0.440004   -1.169719
  C     -0.211703   -1.914768   -0.804110
  H      0.219703    1.289893   -1.834977
  H     -0.360547   -2.910042   -1.205910
  C      0.169844    0.641086    0.199838
  C     -0.155868   -1.714345    0.562369
  H      0.318270    1.640981    0.594651
  H     -0.260301   -2.548668    1.246029
  C      0.035973   -0.433736    1.072320
  O      0.083993   -0.290170    2.418703
  H      0.220494    0.637519    2.643184
  N     -0.147553   -1.137862   -3.059280
  N     -0.024395   -0.225583   -3.859067
  N      0.075386    0.533543   -4.684244

 Multiplicity           Mult            ....    1
 Number of Electrons    NEL             ....   70
 Basis Dimension        Dim             ....  340

ORBITAL ENERGIES
----------------

  NO   OCC          E(Eh)            E(eV)
   0   2.0000     -19.239571      -523.5353
   1   2.0000     -14.564948      -396.3324
   2   2.0000     -14.461048      -393.5051
   3   2.0000     -14.444528      -393.0556
   4   2.0000     -10.291594      -280.0485
   5   2.0000     -10.278391      -279.6892
   6   2.0000     -10.238153      -278.5943
   7   2.0000     -10.235126      -278.5119
   8   2.0000     -10.232700      -278.4459
   9   2.0000     -10.229657      -278.3631
  10   2.0000      -1.191266       -32.4160
  11   2.0000      -1.097955       -29.8769
  12   2.0000      -1.032003       -28.0822
  13   2.0000      -0.894041       -24.3281
  14   2.0000      -0.792482       -21.5645
  15   2.0000      -0.785370       -21.3710
  16   2.0000      -0.677985       -18.4489
  17   2.0000      -0.656717       -17.8702
  18   2.0000      -0.588796       -16.0220
  19   2.0000      -0.571019       -15.5382
  20   2.0000      -0.547478       -14.8976
  21   2.0000      -0.546785       -14.8788
  22   2.0000      -0.497752       -13.5445
  23   2.0000      -0.484162       -13.1747
  24   2.0000      -0.465325       -12.6621
  25   2.0000      -0.445360       -12.1189
  26   2.0000      -0.440188       -11.9781
  27   2.0000      -0.428529       -11.6609
  28   2.0000      -0.409279       -11.1370
  29   2.0000      -0.387467       -10.5435
  30   2.0000      -0.363650        -9.8954
  31   2.0000      -0.332524        -9.0484
  32   2.0000      -0.311469        -8.4755
  33   2.0000      -0.280720        -7.6388
  34   2.0000      -0.225600        -6.1389
  35   0.0000      -0.029572        -0.8047
  36   0.0000      -0.025092        -0.6828
  37   0.0000      -0.014899        -0.4054
  38   0.0000       0.048333         1.3152
  39   0.0000       0.062226         1.6932

MULLIKEN ATOMIC CHARGES
-----------------------
   0 C :    0.284216
   1 C :   -0.270096
   2 C :   -0.266065
   3 H :    0.159214
   4 H :    0.145129
   5 C :   -0.221687
   6 C :   -0.211531
   7 H :    0.163598
   8 H :    0.148797
   9 C :    0.248561
  10 O :   -0.431314
  11 H :    0.369169
  12 N :   -0.350575
  13 N :    0.440345
  14 N :   -0.207760
Sum of atomic charges:   -0.0000000

LOEWDIN ATOMIC CHARGES
----------------------
   0 C :   -0.248880
   1 C :   -0.123391
   2 C :   -0.114916
   3 H :    0.159094
   4 H :    0.159922
   5 C :   -0.133943
   6 C :   -0.125346
   7 H :    0.160596
   8 H :    0.158992
   9 C :   -0.293625
  10 O :    0.080537
  11 H :    0.208585
  12 N :    0.040678
  13 N :    0.097481
  14 N :   -0.025784

  Mayer bond orders larger than 0.100000
B(  0-C ,  1-C ) :   1.3379 B(  0-C ,  2-C ) :   1.3421 B(  0-C , 12-N ) :   1.0312
B(  1-C ,  3-H ) :   0.9561 B(  1-C ,  5-C ) :   1.3861 B(  2-C ,  4-H ) :   0.9839
B(  2-C ,  6-C ) :   1.4551 B(  5-C ,  7-H ) :   0.9549 B(  5-C ,  9-C ) :   1.3627
B(  6-C ,  8-H ) :   0.9781 B(  6-C ,  9-C ) :   1.3725 B(  9-C , 10-O ) :   1.1357
B( 10-O , 11-H ) :   0.8506 B( 12-N , 13-N ) :   1.4159 B( 12-N , 14-N ) :   0.3305
B( 13-N , 14-N ) :   1.9901

Dispersion correction           -0.014069610
FINAL SINGLE POINT ENERGY      -470.733368709592

DIPOLE MOMENT
-------------
                                X             Y             Z
Electronic contribution:     -0.05028       0.32139      -5.41974
Nuclear contribution   :      0.17777       0.45710       6.36462
                        -----------------------------------------
Total Dipole Moment    :      0.12749       0.77850       0.94488
                        -----------------------------------------
Magnitude (a.u.)       :      1.23090
Magnitude (Debye)      :      3.12870

Dispersion correction in the Hessian             ... done   (      0.2 sec)

VIBRATIONAL FREQUENCIES
-----------------------

Scaling factor for frequencies =  1.000000000  (already applied!)

   0:         0.00 cm**-1
   1:         0.00 cm**-1
   2:         0.00 cm**-1
   3:         0.00 cm**-1
   4:         0.00 cm**-1
   5:         0.00 cm**-1
   6:        59.69 cm**-1
   7:       135.11 cm**-1
   8:       160.94 cm**-1
   9:       340.12 cm**-1
  10:       365.94 cm**-1
  11:       366.97 cm**-1
  12:       426.97 cm**-1
  13:       428.77 cm**-1
  14:       454.29 cm**-1
  15:       522.07 cm**-1
  16:       579.82 cm**-1
  17:       651.08 cm**-1
  18:       659.90 cm**-1
  19:       731.47 cm**-1
  20:       802.84 cm**-1
  21:       819.14 cm**-1
  22:       854.50 cm**-1
  23:       872.72 cm**-1
  24:       944.74 cm**-1
  25:       970.48 cm**-1
  26:      1030.48 cm**-1
  27:      1125.76 cm**-1
  28:      1177.39 cm**-1
  29:      1194.41 cm**-1
  30:      1200.71 cm**-1
  31:      1304.60 cm**-1
  32:      1336.36 cm**-1
  33:      1384.33 cm**-1
  34:      1405.49 cm**-1
  35:      1482.81 cm**-1
  36:      1547.81 cm**-1
  37:      1657.17 cm**-1
  38:      1673.86 cm**-1
  39:      2269.89 cm**-1
  40:      3188.51 cm**-1
  41:      3203.56 cm**-1
  42:      3204.35 cm**-1
  43:      3217.12 cm**-1
  44:      3823.54 cm**-1

IR SPECTRUM
-----------

 Mode   freq       eps      Int      T**2         TX        TY        TZ
       cm**-1   L/(mol*cm) km/mol    a.u.
----------------------------------------------------------------------------
  6:     59.69   0.000085    0.43  0.000445  ( 0.020687 -0.004114 -0.000597)
  7:    135.11   0.000512    2.59  0.001182  ( 0.001322  0.007389  0.033550)
  8:    160.94   0.000005    0.03  0.000010  (-0.002987  0.000576  0.000910)
  9:    340.12   0.000081    0.41  0.000075  ( 0.001954  0.006673  0.005127)
 10:    365.94   0.021623  109.27  0.018439  (-0.134406  0.019227  0.002127)
 11:    366.97   0.014168   71.60  0.012048  ( 0.108674 -0.015329 -0.001764)
 12:    426.97   0.000023    0.12  0.000017  (-0.002800 -0.002262 -0.002036)
 13:    428.77   0.000349    1.76  0.000254  (-0.002563 -0.012111 -0.010028)
 14:    454.29   0.003941   19.92  0.002707  ( 0.001775 -0.002794  0.051927)
 15:    522.07   0.006297   31.82  0.003764  (-0.060704  0.008631  0.002204)
 16:    579.82   0.002576   13.02  0.001386  ( 0.036825 -0.005504  0.000113)
 17:    651.08   0.000152    0.77  0.000073  ( 0.000578  0.004230 -0.007384)
 18:    659.90   0.015962   80.66  0.007548  ( 0.000829  0.015224 -0.085533)
 19:    731.47   0.000069    0.35  0.000029  (-0.005331  0.000755  0.000691)
 20:    802.84   0.004313   21.80  0.001676  ( 0.004352  0.038684  0.012692)
 21:    819.14   0.001839    9.29  0.000701  ( 0.026340 -0.002601  0.000188)
 22:    854.50   0.021236  107.32  0.007755  (-0.087249  0.011861  0.001553)
 23:    872.72   0.002760   13.95  0.000987  (-0.001903 -0.010983  0.029369)
 24:    944.74   0.000019    0.09  0.000006  (-0.002407  0.000535  0.000253)
 25:    970.48   0.000047    0.24  0.000015  ( 0.003836 -0.000697  0.000087)
 26:   1030.48   0.000266    1.34  0.000081  ( 0.000843  0.002417  0.008604)
 27:   1125.76   0.006246   31.56  0.001731  ( 0.005858  0.041039  0.003584)
 28:   1177.39   0.000851    4.30  0.000226  ( 0.002145  0.013712  0.005745)
 29:   1194.41   0.003394   17.15  0.000887  (-0.003621 -0.022017 -0.019722)
 30:   1200.71   0.060247  304.46  0.015658  (-0.002467 -0.001658 -0.125097)
 31:   1304.60   0.052638  266.01  0.012591  (-0.001970  0.000969 -0.112189)
 32:   1336.36   0.000333    1.68  0.000078  ( 0.000214 -0.000521  0.008799)
 33:   1384.33   0.023550  119.01  0.005309  ( 0.001510  0.003833  0.072744)
 34:   1405.49   0.032304  163.25  0.007173  (-0.006678 -0.052319  0.066262)
 35:   1482.81   0.015439   78.02  0.003249  ( 0.000811  0.012223 -0.055670)
 36:   1547.81   0.096579  488.07  0.019472  (-0.003021 -0.003496 -0.139465)
 37:   1657.17   0.000012    0.06  0.000002  (-0.000013 -0.000102 -0.001488)
 38:   1673.86   0.007315   36.97  0.001364  ( 0.002273  0.010812  0.035238)
 39:   2269.89   0.386041  1950.89  0.053073  (-0.013829 -0.115190  0.199030)
 40:   3188.51   0.002154   10.88  0.000211  (-0.000690 -0.003074 -0.014173)
 41:   3203.56   0.000706    3.57  0.000069  ( 0.000095 -0.000850  0.008246)
 42:   3204.35   0.000454    2.29  0.000044  ( 0.000494  0.002948  0.005936)
 43:   3217.12   0.000432    2.18  0.000042  ( 0.000723  0.005758 -0.002864)
 44:   3823.54   0.038851  196.34  0.003171  ( 0.006406  0.039583  0.039535)

--------------------------
THERMOCHEMISTRY AT 298.15K
--------------------------

Temperature         ... 298.15 K
Pressure            ... 1.00 atm
Total Mass          ... 135.13 AMU

Throughout the following assumptions are being made:
  (1) The electronic state is orbitally nondegenerate
  (2) There are no thermally accessible electronically excited states
  (3) Hindered rotations indicated by low frequency modes are not
      treated as such but are treated as vibrations and this may
      cause some error
  (4) All equations used are the standard statistical mechanics
      equations for an ideal gas
  (5) All vibrations are strictly harmonic

freq.      59.69  E(vib)   ...       0.51
freq.     135.11  E(vib)   ...       0.42
freq.     160.94  E(vib)   ...       0.39
freq.     340.12  E(vib)   ...       0.23
freq.     365.94  E(vib)   ...       0.22
freq.     366.97  E(vib)   ...       0.22
freq.     426.97  E(vib)   ...       0.18
freq.     428.77  E(vib)   ...       0.18
freq.     454.29  E(vib)   ...       0.16
freq.     522.07  E(vib)   ...       0.13
freq.     579.82  E(vib)   ...       0.11
freq.     651.08  E(vib)   ...       0.08
freq.     659.90  E(vib)   ...       0.08
freq.     731.47  E(vib)   ...       0.06
freq.     802.84  E(vib)   ...       0.05
freq.     819.14  E(vib)   ...       0.05
freq.     854.50  E(vib)   ...       0.04
freq.     872.72  E(vib)   ...       0.04
freq.     944.74  E(vib)   ...       0.03
freq.     970.48  E(vib)   ...       0.03
freq.    1030.48  E(vib)   ...       0.02
freq.    1125.76  E(vib)   ...       0.01
freq.    1177.39  E(vib)   ...       0.01
freq.    1194.41  E(vib)   ...       0.01
freq.    1200.71  E(vib)   ...       0.01
freq.    1304.60  E(vib)   ...       0.01
freq.    1336.36  E(vib)   ...       0.01
freq.    1384.33  E(vib)   ...       0.00
freq.    1405.49  E(vib)   ...       0.00
freq.    1482.81  E(vib)   ...       0.00
freq.    1547.81  E(vib)   ...       0.00
freq.    1657.17  E(vib)   ...       0.00
freq.    1673.86  E(vib)   ...       0.00
freq.    2269.89  E(vib)   ...       0.00
freq.    3188.51  E(vib)   ...       0.00
freq.    3203.56  E(vib)   ...       0.00
freq.    3204.35  E(vib)   ...       0.00
freq.    3217.12  E(vib)   ...       0.00
freq.    3823.54  E(vib)   ...       0.00

------------
INNER ENERGY
------------

The inner energy is: U= E(el) + E(ZPE) + E(vib) + E(rot) + E(trans)
    E(el)   - is the total energy from the electronic structure calculation
              = E(kin-el) + E(nuc-el) + E(el-el) + E(nuc-nuc)
    E(ZPE)  - the the zero temperature vibrational energy from the frequency calculation
    E(vib)  - the the finite temperature correction to E(ZPE) due to population
              of excited vibrational states
    E(rot)  - is the rotational thermal energy
    E(trans)- is the translational thermal energy

Summary of contributions to the inner energy U:
Electronic energy                ...   -470.73336871 Eh
Zero point energy                ...      0.10838536 Eh      68.01 kcal/mol
Thermal vibrational correction   ...      0.00525823 Eh       3.30 kcal/mol
Thermal rotational correction    ...      0.00141627 Eh       0.89 kcal/mol
Thermal translational correction ...      0.00141627 Eh       0.89 kcal/mol
-----------------------------------------------------------------------
Total thermal energy                   -470.61689258 Eh

Summary of corrections to the electronic energy:
(perhaps to be used in another calculation)
Total thermal correction                  0.00809077 Eh       5.08 kcal/mol
Non-thermal (ZPE) correction              0.10838536 Eh      68.01 kcal/mol
-----------------------------------------------------------------------
Total correction                          0.11647613 Eh      73.09 kcal/mol

--------
ENTHALPY
--------

The enthalpy is H = U + kB*T
                kB is Boltzmann's constant
Total free energy                 ...   -470.61689258 Eh
Thermal Enthalpy correction       ...      0.00094421 Eh       0.59 kcal/mol
-----------------------------------------------------------------------
Total Enthalpy                    ...   -470.61594837 Eh

Note: Only C1 symmetry has been detected, increase convergence thresholds
      if your molecule has a higher symmetry. Symmetry factor of 1.0 is
      used for the rotational entropy correction.

Note: Rotational entropy computed according to Herzberg
Infrared and Raman Spectra, Chapter V,1, Van Nostrand Reinhold, 1945
Point Group:  C1, Symmetry Number:   1
Rotational constants in cm-1:     0.152489     0.024810     0.021338

Vibrational entropy computed according to the QRRHO of S. Grimme
Chem.Eur.J. 2012 18 9955

-------
ENTROPY
-------

The entropy contributions are T*S = T*(S(el)+S(vib)+S(rot)+S(trans))
     S(el)   - electronic entropy
     S(vib)  - vibrational entropy
     S(rot)  - rotational entropy
     S(trans)- translational entropy
The entropies will be listed as multiplied by the temperature to get
units of energy

Electronic entropy                ...      0.00000000 Eh      0.00 kcal/mol
Vibrational entropy               ...      0.00862881 Eh      5.41 kcal/mol
Rotational entropy                ...      0.01395999 Eh      8.76 kcal/mol
Translational entropy             ...      0.01929759 Eh     12.11 kcal/mol
-----------------------------------------------------------------------
Final entropy term                ...      0.04188640 Eh     26.28 kcal/mol

In case the symmetry of your molecule has not been determined correctly
or in case you have a reason to use a different symmetry number we print
out the resulting rotational entropy values for sn=1,12 :
 --------------------------------------------------------
|  sn= 1 | S(rot)=       0.01395999 Eh      8.76 kcal/mol|
|  sn= 2 | S(rot)=       0.01330554 Eh      8.35 kcal/mol|
|  sn= 3 | S(rot)=       0.01292271 Eh      8.11 kcal/mol|
|  sn= 4 | S(rot)=       0.01265108 Eh      7.94 kcal/mol|
|  sn= 5 | S(rot)=       0.01244039 Eh      7.81 kcal/mol|
|  sn= 6 | S(rot)=       0.01226825 Eh      7.70 kcal/mol|
|  sn= 7 | S(rot)=       0.01212270 Eh      7.61 kcal/mol|
|  sn= 8 | S(rot)=       0.01199662 Eh      7.53 kcal/mol|
|  sn= 9 | S(rot)=       0.01188542 Eh      7.46 kcal/mol|
|  sn=10 | S(rot)=       0.01178594 Eh      7.40 kcal/mol|
|  sn=11 | S(rot)=       0.01169595 Eh      7.34 kcal/mol|
|  sn=12 | S(rot)=       0.01161379 Eh      7.29 kcal/mol|
 --------------------------------------------------------

-------------------
GIBBS FREE ENERGY
-------------------

The Gibbs free energy is G = H - T*S

Total enthalpy                    ...   -470.61594837 Eh
Total entropy correction          ...     -0.04188640 Eh    -26.28 kcal/mol
-----------------------------------------------------------------------

                             ****ORCA TERMINATED NORMALLY****
TOTAL RUN TIME: 0 days 0 hours 4 minutes 10 seconds 343 msec
