                         Program Version 5.0.4 -  RELEASE  -
|  1> %pal nprocs 24 end
|  2> %maxcore 3500
|  3> ! PBE0 D3BJ def2-TZVP TightSCF OPT FREQ TightOpt
|  4> ! CPCM(dmso)
|  5> %scf
|  6> MaxIter 800
|  7> end
|  8> %geom
|  9> MaxIter 800
| 10> MaxStep 0.2
| 11> end
| 12> *xyz 0 1
| 13>
| 14> C      -0.12025000     -0.54321200     -1.58786900
| 15> C      -0.12290300      0.67585800     -0.89390700
| 16> C      -0.11159900     -1.71410500     -0.81265400
| 17> H      -0.15424700      1.61366000     -1.43149800
| 18> H      -0.13445000     -2.68510800     -1.28829500
| 19> C      -0.08188300      0.71904300      0.49139300
| 20> C      -0.07083100     -1.66652500      0.57127000
| 21> H      -0.08140300      1.68057400      0.99647600
| 22> H      -0.06166700     -2.58766100      1.14382900
| 23> C      -0.05089800     -0.44984600      1.23757700
| 24> O      -0.01313300     -0.45645400      2.60184500
| 25> H      -0.00587700      0.45181600      2.92341800
| 26> N      -0.10956400     -0.58899300     -2.97366600
| 27> C      -0.46608900      0.61085400     -3.69238000
| 28> H      -0.40358800      0.41298400     -4.76160300
| 29> H      -1.48435300      0.95977700     -3.46271000
| 30> H       0.22710000      1.42444800     -3.46742400
| 31> C      -0.45108400     -1.83687000     -3.61339700
| 32> H      -0.37715100     -1.71114700     -4.69272100
| 33> H       0.24501600     -2.62792500     -3.32662400
| 34> H      -1.46972200     -2.17669400     -3.37216100
| 35> *
| 36>
| 37>                          ****END OF INPUT****
 Total Charge           Charge          ....    0
 Multiplicity           Mult            ....    1
 Number of Electrons    NEL             ....   74
Dispersion correction           -0.018814151
FINAL SINGLE POINT ENERGY      -441.112506492088
Dispersion correction            ... done
Dispersion correction           -0.018813349
FINAL SINGLE POINT ENERGY      -441.112506962396
Dispersion correction            ... done
                    ***********************HURRAY********************

CARTESIAN COORDINATES (ANGSTROEM)
---------------------------------
  C     -0.119604   -0.543141   -1.588048
  C     -0.122456    0.676031   -0.893814
  C     -0.111210   -1.714144   -0.812630
  H     -0.153744    1.613808   -1.431374
  H     -0.134301   -2.684999   -1.288481
  C     -0.081745    0.719164    0.491737
  C     -0.070755   -1.666684    0.571496
  H     -0.081411    1.680719    0.996618
  H     -0.061861   -2.587830    1.143902
  C     -0.050922   -0.449874    1.238083
  O     -0.013443   -0.456481    2.602482
  H     -0.006386    0.451831    2.923781
  N     -0.108798   -0.588959   -2.974028
  C     -0.466244    0.610571   -3.692805
  H     -0.403424    0.412574   -4.761874
  H     -1.484699    0.958534   -3.463028
  H      0.226451    1.424435   -3.467721
  C     -0.451147   -1.836662   -3.613670
  H     -0.377738   -1.710660   -4.692879
  H      0.244648   -2.627903   -3.327005
  H     -1.469786   -2.175855   -3.371844

 Multiplicity           Mult            ....    1
 Number of Electrons    NEL             ....   74
 Basis Dimension        Dim             ....  376

ORBITAL ENERGIES
----------------

  NO   OCC          E(Eh)            E(eV)
   0   2.0000     -19.229500      -523.2613
   1   2.0000     -14.395792      -391.7294
   2   2.0000     -10.274326      -279.5786
   3   2.0000     -10.257323      -279.1159
   4   2.0000     -10.237535      -278.5775
   5   2.0000     -10.237483      -278.5761
   6   2.0000     -10.221302      -278.1358
   7   2.0000     -10.219754      -278.0936
   8   2.0000     -10.219530      -278.0875
   9   2.0000     -10.219109      -278.0761
  10   2.0000      -1.085085       -29.5267
  11   2.0000      -0.974174       -26.5086
  12   2.0000      -0.869673       -23.6650
  13   2.0000      -0.774231       -21.0679
  14   2.0000      -0.762800       -20.7568
  15   2.0000      -0.735151       -20.0045
  16   2.0000      -0.674358       -18.3502
  17   2.0000      -0.634422       -17.2635
  18   2.0000      -0.598072       -16.2744
  19   2.0000      -0.561082       -15.2678
  20   2.0000      -0.528741       -14.3878
  21   2.0000      -0.500235       -13.6121
  22   2.0000      -0.475789       -12.9469
  23   2.0000      -0.460789       -12.5387
  24   2.0000      -0.451412       -12.2835
  25   2.0000      -0.433372       -11.7927
  26   2.0000      -0.426190       -11.5972
  27   2.0000      -0.417364       -11.3571
  28   2.0000      -0.406901       -11.0723
  29   2.0000      -0.396237       -10.7821
  30   2.0000      -0.386563       -10.5189
  31   2.0000      -0.381561       -10.3828
  32   2.0000      -0.359575        -9.7845
  33   2.0000      -0.340817        -9.2741
  34   2.0000      -0.279686        -7.6106
  35   2.0000      -0.268350        -7.3022
  36   2.0000      -0.194691        -5.2978
  37   0.0000      -0.008174        -0.2224
  38   0.0000       0.023543         0.6406
  39   0.0000       0.055256         1.5036
  40   0.0000       0.064517         1.7556
  41   0.0000       0.083115         2.2617

MULLIKEN ATOMIC CHARGES
-----------------------
   0 C :    0.246039
   1 C :   -0.311220
   2 C :   -0.296196
   3 H :    0.147203
   4 H :    0.144546
   5 C :   -0.241434
   6 C :   -0.248770
   7 H :    0.152039
   8 H :    0.137723
   9 C :    0.234691
  10 O :   -0.449999
  11 H :    0.363190
  12 N :   -0.070923
  13 C :   -0.332466
  14 H :    0.151722
  15 H :    0.128515
  16 H :    0.148834
  17 C :   -0.332702
  18 H :    0.151731
  19 H :    0.149041
  20 H :    0.128435
Sum of atomic charges:    0.0000000

LOEWDIN ATOMIC CHARGES
----------------------
   0 C :   -0.218526
   1 C :   -0.142347
   2 C :   -0.140843
   3 H :    0.155798
   4 H :    0.155745
   5 C :   -0.152346
   6 C :   -0.143221
   7 H :    0.156394
   8 H :    0.154859
   9 C :   -0.313238
  10 O :    0.055319
  11 H :    0.203007
  12 N :    0.125942
  13 C :   -0.310091
  14 H :    0.126442
  15 H :    0.113498
  16 H :    0.121911
  17 C :   -0.310131
  18 H :    0.126372
  19 H :    0.122038
  20 H :    0.113421

  Mayer bond orders larger than 0.100000
B(  0-C ,  1-C ) :   1.2918 B(  0-C ,  2-C ) :   1.2899 B(  0-C , 12-N ) :   1.2059
B(  1-C ,  3-H ) :   0.9614 B(  1-C ,  5-C ) :   1.4139 B(  2-C ,  4-H ) :   0.9757
B(  2-C ,  6-C ) :   1.4715 B(  5-C ,  7-H ) :   0.9624 B(  5-C ,  9-C ) :   1.3637
B(  6-C ,  8-H ) :   0.9807 B(  6-C ,  9-C ) :   1.3908 B(  9-C , 10-O ) :   1.1053
B( 10-O , 11-H ) :   0.8565 B( 12-N , 13-C ) :   0.9755 B( 12-N , 17-C ) :   0.9755
B( 13-C , 14-H ) :   0.9624 B( 13-C , 15-H ) :   0.9585 B( 13-C , 16-H ) :   0.9580
B( 17-C , 18-H ) :   0.9624 B( 17-C , 19-H ) :   0.9581 B( 17-C , 20-H ) :   0.9586

Dispersion correction           -0.018813429
FINAL SINGLE POINT ENERGY      -441.112507015635

DIPOLE MOMENT
-------------
                                X             Y             Z
Electronic contribution:      1.49126       0.24183       9.47029
Nuclear contribution   :     -1.72724       0.44651     -10.34425
                        -----------------------------------------
Total Dipole Moment    :     -0.23598       0.68834      -0.87396
                        -----------------------------------------
Magnitude (a.u.)       :      1.13724
Magnitude (Debye)      :      2.89063

Dispersion correction in the Hessian             ... done   (      0.4 sec)

VIBRATIONAL FREQUENCIES
-----------------------

Scaling factor for frequencies =  1.000000000  (already applied!)

   0:         0.00 cm**-1
   1:         0.00 cm**-1
   2:         0.00 cm**-1
   3:         0.00 cm**-1
   4:         0.00 cm**-1
   5:         0.00 cm**-1
   6:        69.20 cm**-1
   7:        98.31 cm**-1
   8:       164.93 cm**-1
   9:       181.62 cm**-1
  10:       228.71 cm**-1
  11:       265.32 cm**-1
  12:       306.99 cm**-1
  13:       374.20 cm**-1
  14:       393.68 cm**-1
  15:       399.13 cm**-1
  16:       429.80 cm**-1
  17:       493.30 cm**-1
  18:       511.12 cm**-1
  19:       536.37 cm**-1
  20:       656.36 cm**-1
  21:       713.56 cm**-1
  22:       734.16 cm**-1
  23:       806.71 cm**-1
  24:       838.60 cm**-1
  25:       851.37 cm**-1
  26:       930.19 cm**-1
  27:       947.95 cm**-1
  28:       976.75 cm**-1
  29:      1023.92 cm**-1
  30:      1079.22 cm**-1
  31:      1123.14 cm**-1
  32:      1137.19 cm**-1
  33:      1147.51 cm**-1
  34:      1188.33 cm**-1
  35:      1192.24 cm**-1
  36:      1201.69 cm**-1
  37:      1275.09 cm**-1
  38:      1292.86 cm**-1
  39:      1358.77 cm**-1
  40:      1378.10 cm**-1
  41:      1381.74 cm**-1
  42:      1434.95 cm**-1
  43:      1466.52 cm**-1
  44:      1469.09 cm**-1
  45:      1471.75 cm**-1
  46:      1475.36 cm**-1
  47:      1496.59 cm**-1
  48:      1506.74 cm**-1
  49:      1557.97 cm**-1
  50:      1646.25 cm**-1
  51:      1685.80 cm**-1
  52:      2978.44 cm**-1
  53:      2985.31 cm**-1
  54:      3085.69 cm**-1
  55:      3088.19 cm**-1
  56:      3142.71 cm**-1
  57:      3151.99 cm**-1
  58:      3180.11 cm**-1
  59:      3195.90 cm**-1
  60:      3230.58 cm**-1
  61:      3230.92 cm**-1
  62:      3829.69 cm**-1

IR SPECTRUM
-----------

 Mode   freq       eps      Int      T**2         TX        TY        TZ
       cm**-1   L/(mol*cm) km/mol    a.u.
----------------------------------------------------------------------------
  6:     69.20   0.000144    0.73  0.000647  (-0.025414  0.001099  0.000497)
  7:     98.31   0.001511    7.64  0.004797  (-0.048313  0.001854  0.049595)
  8:    164.93   0.003111   15.72  0.005886  ( 0.019823 -0.002550 -0.074069)
  9:    181.62   0.000099    0.50  0.000169  (-0.002076 -0.000075 -0.012845)
 10:    228.71   0.001756    8.87  0.002395  (-0.024817  0.001989  0.042137)
 11:    265.32   0.000733    3.71  0.000863  ( 0.005198  0.021749 -0.019044)
 12:    306.99   0.034521  174.46  0.035091  (-0.187307  0.000113  0.002743)
 13:    374.20   0.000300    1.52  0.000251  (-0.001781 -0.000628  0.015716)
 14:    393.68   0.002064   10.43  0.001636  ( 0.000606 -0.011895  0.038659)
 15:    399.13   0.001817    9.18  0.001421  ( 0.026109 -0.001627 -0.027142)
 16:    429.80   0.000296    1.50  0.000215  (-0.012461  0.005373  0.005541)
 17:    493.30   0.001862    9.41  0.001178  (-0.000056 -0.027690 -0.020278)
 18:    511.12   0.003690   18.65  0.002253  (-0.044323  0.000316 -0.016975)
 19:    536.37   0.004972   25.13  0.002893  ( 0.052103  0.001560  0.013257)
 20:    656.36   0.000213    1.07  0.000101  (-0.000383  0.003186  0.009529)
 21:    713.56   0.011902   60.15  0.005205  (-0.012938  0.000543  0.070976)
 22:    734.16   0.000159    0.81  0.000068  (-0.004879 -0.000503 -0.006608)
 23:    806.71   0.000546    2.76  0.000211  ( 0.014368  0.001311 -0.001775)
 24:    838.60   0.024700  124.83  0.009192  ( 0.095145 -0.000400 -0.011785)
 25:    851.37   0.010102   51.05  0.003703  ( 0.005997  0.002635  0.060498)
 26:    930.19   0.000141    0.71  0.000047  ( 0.005013  0.001206  0.004541)
 27:    947.95   0.000035    0.18  0.000012  ( 0.001968 -0.001808  0.002122)
 28:    976.75   0.008292   41.90  0.002649  (-0.024349 -0.000760 -0.045340)
 29:   1023.92   0.000107    0.54  0.000032  (-0.000603  0.001804  0.005370)
 30:   1079.22   0.006672   33.72  0.001929  (-0.000174  0.043897  0.001454)
 31:   1123.14   0.000372    1.88  0.000103  (-0.000019 -0.009343 -0.004000)
 32:   1137.19   0.003564   18.01  0.000978  ( 0.000182  0.024414  0.019543)
 33:   1147.51   0.015800   79.85  0.004297  (-0.004747  0.001913  0.065350)
 34:   1188.33   0.001353    6.84  0.000355  (-0.001075 -0.009807 -0.016060)
 35:   1192.24   0.052199  263.79  0.013663  ( 0.003235 -0.023467  0.114462)
 36:   1201.69   0.007957   40.21  0.002066  (-0.003793  0.012905 -0.043421)
 37:   1275.09   0.018997   96.00  0.004649  ( 0.000963  0.064953  0.020721)
 38:   1292.86   0.039169  197.94  0.009454  (-0.007070 -0.006585 -0.096753)
 39:   1358.77   0.000470    2.38  0.000108  ( 0.000835 -0.004395 -0.009379)
 40:   1378.10   0.005519   27.89  0.001250  ( 0.004826 -0.020680  0.028264)
 41:   1381.74   0.029143  147.28  0.006582  ( 0.005349  0.025670  0.076775)
 42:   1434.95   0.000702    3.55  0.000153  (-0.000524 -0.007882 -0.009502)
 43:   1466.52   0.002384   12.05  0.000507  (-0.001954  0.009489  0.020332)
 44:   1469.09   0.010979   55.48  0.002332  (-0.005821 -0.009218  0.047046)
 45:   1471.75   0.004606   23.28  0.000977  (-0.027754 -0.005547  0.013251)
 46:   1475.36   0.003817   19.29  0.000807  (-0.008190  0.025350 -0.009884)
 47:   1496.59   0.002425   12.26  0.000506  (-0.002574  0.010127 -0.019914)
 48:   1506.74   0.019315   97.61  0.004000  ( 0.000217  0.001262  0.063236)
 49:   1557.97   0.120347  608.18  0.024106  (-0.011711 -0.007631 -0.154629)
 50:   1646.25   0.000210    1.06  0.000040  (-0.000157  0.004334  0.004586)
 51:   1685.80   0.000968    4.89  0.000179  ( 0.001470  0.000417  0.013302)
 52:   2978.44   0.022978  116.12  0.002407  ( 0.000226  0.049055 -0.000999)
 53:   2985.31   0.033029  166.92  0.003453  (-0.049931 -0.001261 -0.030951)
 54:   3085.69   0.008529   43.10  0.000863  (-0.021125 -0.017916  0.009761)
 55:   3088.19   0.009963   50.35  0.001007  (-0.025515  0.015101  0.011301)
 56:   3142.71   0.001528    7.72  0.000152  (-0.000224  0.012258 -0.001176)
 57:   3151.99   0.007873   39.79  0.000779  ( 0.000946  0.000807  0.027892)
 58:   3180.11   0.003187   16.10  0.000313  ( 0.000591  0.007079  0.016194)
 59:   3195.90   0.002419   12.22  0.000236  ( 0.000553 -0.006044  0.014118)
 60:   3230.58   0.001544    7.80  0.000149  (-0.000005 -0.012028  0.002103)
 61:   3230.92   0.000790    3.99  0.000076  ( 0.000276 -0.002504 -0.008366)
 62:   3829.69   0.034961  176.68  0.002849  (-0.001583 -0.035834 -0.039525)

--------------------------
THERMOCHEMISTRY AT 298.15K
--------------------------

Temperature         ... 298.15 K
Pressure            ... 1.00 atm
Total Mass          ... 137.18 AMU

Throughout the following assumptions are being made:
  (1) The electronic state is orbitally nondegenerate
  (2) There are no thermally accessible electronically excited states
  (3) Hindered rotations indicated by low frequency modes are not
      treated as such but are treated as vibrations and this may
      cause some error
  (4) All equations used are the standard statistical mechanics
      equations for an ideal gas
  (5) All vibrations are strictly harmonic

freq.      69.20  E(vib)   ...       0.50
freq.      98.31  E(vib)   ...       0.46
freq.     164.93  E(vib)   ...       0.39
freq.     181.62  E(vib)   ...       0.37
freq.     228.71  E(vib)   ...       0.32
freq.     265.32  E(vib)   ...       0.29
freq.     306.99  E(vib)   ...       0.26
freq.     374.20  E(vib)   ...       0.21
freq.     393.68  E(vib)   ...       0.20
freq.     399.13  E(vib)   ...       0.19
freq.     429.80  E(vib)   ...       0.18
freq.     493.30  E(vib)   ...       0.14
freq.     511.12  E(vib)   ...       0.14
freq.     536.37  E(vib)   ...       0.12
freq.     656.36  E(vib)   ...       0.08
freq.     713.56  E(vib)   ...       0.07
freq.     734.16  E(vib)   ...       0.06
freq.     806.71  E(vib)   ...       0.05
freq.     838.60  E(vib)   ...       0.04
freq.     851.37  E(vib)   ...       0.04
freq.     930.19  E(vib)   ...       0.03
freq.     947.95  E(vib)   ...       0.03
freq.     976.75  E(vib)   ...       0.03
freq.    1023.92  E(vib)   ...       0.02
freq.    1079.22  E(vib)   ...       0.02
freq.    1123.14  E(vib)   ...       0.01
freq.    1137.19  E(vib)   ...       0.01
freq.    1147.51  E(vib)   ...       0.01
freq.    1188.33  E(vib)   ...       0.01
freq.    1192.24  E(vib)   ...       0.01
freq.    1201.69  E(vib)   ...       0.01
freq.    1275.09  E(vib)   ...       0.01
freq.    1292.86  E(vib)   ...       0.01
freq.    1358.77  E(vib)   ...       0.01
freq.    1378.10  E(vib)   ...       0.01
freq.    1381.74  E(vib)   ...       0.01
freq.    1434.95  E(vib)   ...       0.00
freq.    1466.52  E(vib)   ...       0.00
freq.    1469.09  E(vib)   ...       0.00
freq.    1471.75  E(vib)   ...       0.00
freq.    1475.36  E(vib)   ...       0.00
freq.    1496.59  E(vib)   ...       0.00
freq.    1506.74  E(vib)   ...       0.00
freq.    1557.97  E(vib)   ...       0.00
freq.    1646.25  E(vib)   ...       0.00
freq.    1685.80  E(vib)   ...       0.00
freq.    2978.44  E(vib)   ...       0.00
freq.    2985.31  E(vib)   ...       0.00
freq.    3085.69  E(vib)   ...       0.00
freq.    3088.19  E(vib)   ...       0.00
freq.    3142.71  E(vib)   ...       0.00
freq.    3151.99  E(vib)   ...       0.00
freq.    3180.11  E(vib)   ...       0.00
freq.    3195.90  E(vib)   ...       0.00
freq.    3230.58  E(vib)   ...       0.00
freq.    3230.92  E(vib)   ...       0.00
freq.    3829.69  E(vib)   ...       0.00

------------
INNER ENERGY
------------

The inner energy is: U= E(el) + E(ZPE) + E(vib) + E(rot) + E(trans)
    E(el)   - is the total energy from the electronic structure calculation
              = E(kin-el) + E(nuc-el) + E(el-el) + E(nuc-nuc)
    E(ZPE)  - the the zero temperature vibrational energy from the frequency calculation
    E(vib)  - the the finite temperature correction to E(ZPE) due to population
              of excited vibrational states
    E(rot)  - is the rotational thermal energy
    E(trans)- is the translational thermal energy

Summary of contributions to the inner energy U:
Electronic energy                ...   -441.11250702 Eh
Zero point energy                ...      0.17769413 Eh     111.50 kcal/mol
Thermal vibrational correction   ...      0.00697591 Eh       4.38 kcal/mol
Thermal rotational correction    ...      0.00141627 Eh       0.89 kcal/mol
Thermal translational correction ...      0.00141627 Eh       0.89 kcal/mol
-----------------------------------------------------------------------
Total thermal energy                   -440.92500443 Eh

Summary of corrections to the electronic energy:
(perhaps to be used in another calculation)
Total thermal correction                  0.00980845 Eh       6.15 kcal/mol
Non-thermal (ZPE) correction              0.17769413 Eh     111.50 kcal/mol
-----------------------------------------------------------------------
Total correction                          0.18750258 Eh     117.66 kcal/mol

--------
ENTHALPY
--------

The enthalpy is H = U + kB*T
                kB is Boltzmann's constant
Total free energy                 ...   -440.92500443 Eh
Thermal Enthalpy correction       ...      0.00094421 Eh       0.59 kcal/mol
-----------------------------------------------------------------------
Total Enthalpy                    ...   -440.92406022 Eh

Note: Only C1 symmetry has been detected, increase convergence thresholds
      if your molecule has a higher symmetry. Symmetry factor of 1.0 is
      used for the rotational entropy correction.

Note: Rotational entropy computed according to Herzberg
Infrared and Raman Spectra, Chapter V,1, Van Nostrand Reinhold, 1945
Point Group:  C1, Symmetry Number:   1
Rotational constants in cm-1:     0.117276     0.026595     0.021925

Vibrational entropy computed according to the QRRHO of S. Grimme
Chem.Eur.J. 2012 18 9955

-------
ENTROPY
-------

The entropy contributions are T*S = T*(S(el)+S(vib)+S(rot)+S(trans))
     S(el)   - electronic entropy
     S(vib)  - vibrational entropy
     S(rot)  - rotational entropy
     S(trans)- translational entropy
The entropies will be listed as multiplied by the temperature to get
units of energy

Electronic entropy                ...      0.00000000 Eh      0.00 kcal/mol
Vibrational entropy               ...      0.01164656 Eh      7.31 kcal/mol
Rotational entropy                ...      0.01403835 Eh      8.81 kcal/mol
Translational entropy             ...      0.01931898 Eh     12.12 kcal/mol
-----------------------------------------------------------------------
Final entropy term                ...      0.04500389 Eh     28.24 kcal/mol

In case the symmetry of your molecule has not been determined correctly
or in case you have a reason to use a different symmetry number we print
out the resulting rotational entropy values for sn=1,12 :
 --------------------------------------------------------
|  sn= 1 | S(rot)=       0.01403835 Eh      8.81 kcal/mol|
|  sn= 2 | S(rot)=       0.01338389 Eh      8.40 kcal/mol|
|  sn= 3 | S(rot)=       0.01300106 Eh      8.16 kcal/mol|
|  sn= 4 | S(rot)=       0.01272943 Eh      7.99 kcal/mol|
|  sn= 5 | S(rot)=       0.01251875 Eh      7.86 kcal/mol|
|  sn= 6 | S(rot)=       0.01234660 Eh      7.75 kcal/mol|

                             ****ORCA TERMINATED NORMALLY****
TOTAL RUN TIME: 0 days 0 hours 6 minutes 15 seconds 409 msec
