                         Program Version 5.0.4 -  RELEASE  -
|  1> %pal nprocs 24 end
|  2> %maxcore 3500
|  3> ! PBE0 D3BJ def2-TZVP TightSCF OPT FREQ TightOpt
|  4> ! CPCM(dmso)
|  5> %scf
|  6> MaxIter 800
|  7> end
|  8> %geom
|  9> MaxIter 800
| 10> MaxStep 0.2
| 11> end
| 12> *xyz -1 1
| 13>
| 14> C      -0.04217400     -0.49732500     -1.59811000
| 15> C       0.29922000      0.65375700     -0.87942700
| 16> C      -0.39619900     -1.61994700     -0.85032000
| 17> H       0.60168600      1.54475100     -1.42339700
| 18> H      -0.66993300     -2.54160800     -1.35251100
| 19> C       0.27576000      0.68798500      0.50187200
| 20> C      -0.40412800     -1.59975200      0.53991500
| 21> H       0.54895500      1.60528600      1.01808000
| 22> H      -0.67510200     -2.50280200      1.08190800
| 23> C      -0.07764700     -0.44314100      1.29853200
| 24> O      -0.09150500     -0.41270600      2.58247700
| 25> N       0.01402200     -0.48213200     -3.02132400
| 26> C      -0.88061000      0.48119800     -3.63578800
| 27> H      -0.66729900      0.54670900     -4.70574700
| 28> H      -1.94134100      0.20066300     -3.51374700
| 29> H      -0.73822300      1.46976400     -3.20076300
| 30> C      -0.09686000     -1.76926400     -3.66171000
| 31> H       0.09075500     -1.65006100     -4.73120600
| 32> H       0.64503300     -2.46053500     -3.25702300
| 33> H      -1.09298800     -2.23185100     -3.54740900
| 34> *
| 35>
| 36>                          ****END OF INPUT****
 Total Charge           Charge          ....   -1
 Multiplicity           Mult            ....    1
 Number of Electrons    NEL             ....   74
Dispersion correction           -0.018263169
FINAL SINGLE POINT ENERGY      -440.620514816118
Dispersion correction            ... done
Dispersion correction           -0.018261509
FINAL SINGLE POINT ENERGY      -440.620515729640
Dispersion correction            ... done
                    ***********************HURRAY********************

CARTESIAN COORDINATES (ANGSTROEM)
---------------------------------
  C     -0.041666   -0.497261   -1.598136
  C      0.300632    0.653711   -0.879259
  C     -0.396861   -1.619700   -0.850018
  H      0.603902    1.544077   -1.423672
  H     -0.670906   -2.540974   -1.352661
  C      0.276852    0.688191    0.502294
  C     -0.405201   -1.599485    0.540342
  H      0.550849    1.605201    1.018434
  H     -0.677043   -2.502178    1.082340
  C     -0.077775   -0.442753    1.299266
  O     -0.092006   -0.412237    2.583248
  N      0.014350   -0.481950   -3.021737
  C     -0.881564    0.480374   -3.636040
  H     -0.667247    0.548243   -4.705541
  H     -1.941720    0.197408   -3.515484
  H     -0.741823    1.468232   -3.198806
  C     -0.096089   -1.768948   -3.662539
  H      0.090462   -1.649186   -4.732001
  H      0.646167   -2.459848   -3.258140
  H     -1.091891   -2.231928   -3.547588

 Multiplicity           Mult            ....    1
 Number of Electrons    NEL             ....   74
 Basis Dimension        Dim             ....  370

ORBITAL ENERGIES
----------------

  NO   OCC          E(Eh)            E(eV)
   0   2.0000     -19.103878      -519.8429
   1   2.0000     -14.375792      -391.1852
   2   2.0000     -10.235032      -278.5094
   3   2.0000     -10.226985      -278.2904
   4   2.0000     -10.226258      -278.2706
   5   2.0000     -10.222782      -278.1761
   6   2.0000     -10.199846      -277.5519
   7   2.0000     -10.199436      -277.5408
   8   2.0000     -10.185708      -277.1672
   9   2.0000     -10.182778      -277.0875
  10   2.0000      -0.967642       -26.3309
  11   2.0000      -0.951041       -25.8791
  12   2.0000      -0.832573       -22.6555
  13   2.0000      -0.744211       -20.2510
  14   2.0000      -0.719153       -19.5692
  15   2.0000      -0.716397       -19.4941
  16   2.0000      -0.636455       -17.3188
  17   2.0000      -0.597338       -16.2544
  18   2.0000      -0.561078       -15.2677
  19   2.0000      -0.513290       -13.9673
  20   2.0000      -0.472708       -12.8630
  21   2.0000      -0.463406       -12.6099
  22   2.0000      -0.440965       -11.9993
  23   2.0000      -0.427583       -11.6351
  24   2.0000      -0.422217       -11.4891
  25   2.0000      -0.404243       -11.0000
  26   2.0000      -0.389841       -10.6081
  27   2.0000      -0.379250       -10.3199
  28   2.0000      -0.374126       -10.1805
  29   2.0000      -0.368146       -10.0178
  30   2.0000      -0.352176        -9.5832
  31   2.0000      -0.330748        -9.0001
  32   2.0000      -0.310543        -8.4503
  33   2.0000      -0.245218        -6.6727
  34   2.0000      -0.236184        -6.4269
  35   2.0000      -0.213916        -5.8210
  36   2.0000      -0.160292        -4.3618
  37   0.0000       0.015304         0.4164
  38   0.0000       0.050477         1.3736
  39   0.0000       0.061191         1.6651
  40   0.0000       0.089353         2.4314
  41   0.0000       0.090976         2.4756

MULLIKEN ATOMIC CHARGES
-----------------------
   0 C :    0.169172
   1 C :   -0.310063
   2 C :   -0.291136
   3 H :    0.126850
   4 H :    0.133377
   5 C :   -0.271009
   6 C :   -0.310893
   7 H :    0.094158
   8 H :    0.093032
   9 C :    0.230915
  10 O :   -0.691945
  11 N :   -0.108585
  12 C :   -0.301246
  13 H :    0.134938
  14 H :    0.098945
  15 H :    0.143564
  16 C :   -0.345169
  17 H :    0.145387
  18 H :    0.146442
  19 H :    0.113268
Sum of atomic charges:   -1.0000000

LOEWDIN ATOMIC CHARGES
----------------------
   0 C :   -0.256271
   1 C :   -0.166969
   2 C :   -0.178508
   3 H :    0.146817
   4 H :    0.148736
   5 C :   -0.192109
   6 C :   -0.202013
   7 H :    0.134626
   8 H :    0.133189
   9 C :   -0.450504
  10 O :   -0.228766
  11 N :    0.083416
  12 C :   -0.323539
  13 H :    0.118224
  14 H :    0.103226
  15 H :    0.119152
  16 C :   -0.335058
  17 H :    0.120466
  18 H :    0.121752
  19 H :    0.104135

  Mayer bond orders larger than 0.100000
B(  0-C ,  1-C ) :   1.3463 B(  0-C ,  2-C ) :   1.3284 B(  0-C , 11-N ) :   1.0876
B(  1-C ,  3-H ) :   0.9593 B(  1-C ,  5-C ) :   1.4403 B(  2-C ,  4-H ) :   0.9582
B(  2-C ,  6-C ) :   1.3558 B(  5-C ,  7-H ) :   0.9917 B(  5-C ,  9-C ) :   1.2132
B(  6-C ,  8-H ) :   0.9878 B(  6-C ,  9-C ) :   1.2478 B(  9-C , 10-O ) :   1.6644
B( 11-N , 12-C ) :   0.9525 B( 11-N , 16-C ) :   0.9933 B( 12-C , 13-H ) :   0.9682
B( 12-C , 14-H ) :   0.9549 B( 12-C , 15-H ) :   0.9712 B( 16-C , 17-H ) :   0.9633
B( 16-C , 18-H ) :   0.9661 B( 16-C , 19-H ) :   0.9598

Dispersion correction           -0.018261416
FINAL SINGLE POINT ENERGY      -440.620516307199

DIPOLE MOMENT
-------------
                                X             Y             Z
Electronic contribution:      1.79872       0.73095       8.37557
Nuclear contribution   :     -2.20428      -0.91199     -13.56697
                        -----------------------------------------
Total Dipole Moment    :     -0.40556      -0.18104      -5.19140
                        -----------------------------------------
Magnitude (a.u.)       :      5.21036
Magnitude (Debye)      :     13.24369

Dispersion correction in the Hessian             ... done   (      0.4 sec)

VIBRATIONAL FREQUENCIES
-----------------------

Scaling factor for frequencies =  1.000000000  (already applied!)

   0:         0.00 cm**-1
   1:         0.00 cm**-1
   2:         0.00 cm**-1
   3:         0.00 cm**-1
   4:         0.00 cm**-1
   5:         0.00 cm**-1
   6:        55.40 cm**-1
   7:        99.10 cm**-1
   8:       210.52 cm**-1
   9:       223.93 cm**-1
  10:       253.74 cm**-1
  11:       306.57 cm**-1
  12:       354.90 cm**-1
  13:       407.84 cm**-1
  14:       426.94 cm**-1
  15:       435.89 cm**-1
  16:       479.94 cm**-1
  17:       507.38 cm**-1
  18:       547.84 cm**-1
  19:       649.72 cm**-1
  20:       714.77 cm**-1
  21:       747.18 cm**-1
  22:       806.69 cm**-1
  23:       849.83 cm**-1
  24:       854.63 cm**-1
  25:       934.68 cm**-1
  26:       956.19 cm**-1
  27:       972.57 cm**-1
  28:      1002.54 cm**-1
  29:      1068.11 cm**-1
  30:      1107.30 cm**-1
  31:      1114.34 cm**-1
  32:      1168.28 cm**-1
  33:      1173.51 cm**-1
  34:      1178.05 cm**-1
  35:      1234.61 cm**-1
  36:      1271.92 cm**-1
  37:      1327.29 cm**-1
  38:      1337.93 cm**-1
  39:      1390.84 cm**-1
  40:      1426.45 cm**-1
  41:      1452.18 cm**-1
  42:      1454.25 cm**-1
  43:      1463.30 cm**-1
  44:      1471.49 cm**-1
  45:      1480.17 cm**-1
  46:      1495.96 cm**-1
  47:      1536.09 cm**-1
  48:      1574.59 cm**-1
  49:      1659.33 cm**-1
  50:      2940.04 cm**-1
  51:      2944.69 cm**-1
  52:      3076.00 cm**-1
  53:      3081.50 cm**-1
  54:      3125.88 cm**-1
  55:      3142.85 cm**-1
  56:      3149.44 cm**-1
  57:      3151.32 cm**-1
  58:      3170.74 cm**-1
  59:      3190.64 cm**-1

IR SPECTRUM
-----------

 Mode   freq       eps      Int      T**2         TX        TY        TZ
       cm**-1   L/(mol*cm) km/mol    a.u.
----------------------------------------------------------------------------
  6:     55.40   0.000777    3.93  0.004376  (-0.001667 -0.024708  0.061343)
  7:     99.10   0.000498    2.52  0.001568  ( 0.029179 -0.017324  0.020402)
  8:    210.52   0.001017    5.14  0.001507  (-0.030569  0.000395  0.023931)
  9:    223.93   0.000175    0.89  0.000244  (-0.014715 -0.005267  0.000022)
 10:    253.74   0.001670    8.44  0.002054  ( 0.034186 -0.005939 -0.029148)
 11:    306.57   0.000299    1.51  0.000304  ( 0.008487  0.010074 -0.011438)
 12:    354.90   0.000801    4.05  0.000704  ( 0.012937  0.003816  0.022849)
 13:    407.84   0.002175   10.99  0.001664  ( 0.022649  0.022089 -0.025758)
 14:    426.94   0.000147    0.74  0.000107  ( 0.003174  0.009327 -0.003183)
 15:    435.89   0.000354    1.79  0.000254  ( 0.005776  0.001671 -0.014749)
 16:    479.94   0.001520    7.68  0.000988  (-0.019652 -0.012899 -0.020875)
 17:    507.38   0.000729    3.68  0.000448  (-0.018768 -0.001259 -0.009724)
 18:    547.84   0.009031   45.64  0.005144  (-0.065633  0.028893 -0.001193)
 19:    649.72   0.000018    0.09  0.000009  ( 0.001165  0.002382 -0.001337)
 20:    714.77   0.017731   89.60  0.007741  ( 0.020316  0.008645 -0.085169)
 21:    747.18   0.000382    1.93  0.000160  (-0.010000 -0.007130  0.002978)
 22:    806.69   0.000693    3.50  0.000268  ( 0.014952 -0.001703  0.006445)
 23:    849.83   0.020826  105.25  0.007648  ( 0.084458 -0.022288 -0.004206)
 24:    854.63   0.002160   10.92  0.000789  (-0.023029  0.007894 -0.014002)
 25:    934.68   0.000486    2.45  0.000162  (-0.011495  0.005307  0.001356)
 26:    956.19   0.000518    2.62  0.000169  ( 0.001046  0.005015  0.011945)
 27:    972.57   0.020883  105.53  0.006701  ( 0.037761  0.009680  0.071979)
 28:   1002.54   0.000891    4.50  0.000277  (-0.010597 -0.003860  0.012255)
 29:   1068.11   0.003934   19.88  0.001149  (-0.004485  0.032926  0.006727)
 30:   1107.30   0.005792   29.27  0.001632  (-0.011262 -0.036983  0.011733)
 31:   1114.34   0.000890    4.50  0.000249  ( 0.012661  0.005398  0.007733)
 32:   1168.28   0.004592   23.21  0.001227  ( 0.020983  0.015414 -0.023426)
 33:   1173.51   0.018740   94.70  0.004983  ( 0.002641  0.003888 -0.070436)
 34:   1178.05   0.000384    1.94  0.000102  (-0.008935 -0.000571  0.004649)
 35:   1234.61   0.017791   89.91  0.004497  ( 0.008014 -0.065708  0.010725)
 36:   1271.92   0.001314    6.64  0.000322  (-0.007976 -0.015951 -0.002055)
 37:   1327.29   0.004898   24.75  0.001152  (-0.006476 -0.020104  0.026561)
 38:   1337.93   0.031687  160.13  0.007391  (-0.015879 -0.019347 -0.082246)
 39:   1390.84   0.046061  232.77  0.010335  ( 0.002317 -0.007768 -0.101336)
 40:   1426.45   0.000351    1.77  0.000077  (-0.003298 -0.006884  0.004304)
 41:   1452.18   0.003466   17.52  0.000745  (-0.007511  0.008224 -0.024916)
 42:   1454.25   0.008723   44.08  0.001872  (-0.009200 -0.041611  0.007468)
 43:   1463.30   0.003215   16.25  0.000686  ( 0.014516 -0.006631 -0.020762)
 44:   1471.49   0.014514   73.35  0.003078  ( 0.021800  0.014438 -0.048931)
 45:   1480.17   0.003538   17.88  0.000746  (-0.001297  0.025058 -0.010785)
 46:   1495.96   0.000587    2.97  0.000122  (-0.008036  0.000030 -0.007609)
 47:   1536.09   0.205180  1036.90  0.041683  ( 0.006134  0.008349  0.203902)
 48:   1574.59   0.006317   31.92  0.001252  (-0.005663 -0.027496 -0.021539)
 49:   1659.33   0.020805  105.14  0.003913  (-0.000105  0.003886  0.062431)
 50:   2940.04   0.018460   93.29  0.001959  (-0.009954 -0.042266 -0.008597)
 51:   2944.69   0.052539  265.51  0.005568  ( 0.067287  0.008249  0.031180)
 52:   3076.00   0.011031   55.75  0.001119  (-0.023490  0.011140  0.021054)
 53:   3081.50   0.013622   68.84  0.001380  (-0.012834 -0.016048  0.030940)
 54:   3125.88   0.007968   40.27  0.000795  (-0.010582  0.012595 -0.022909)
 55:   3142.85   0.009230   46.65  0.000917  ( 0.002398  0.015607  0.025830)
 56:   3149.44   0.005532   27.96  0.000548  ( 0.002386  0.007209  0.022146)
 57:   3151.32   0.012198   61.64  0.001208  ( 0.006242  0.020169 -0.027607)
 58:   3170.74   0.009554   48.28  0.000940  ( 0.009175  0.029259  0.000288)
 59:   3190.64   0.004744   23.98  0.000464  ( 0.004767  0.019911  0.006697)

--------------------------
THERMOCHEMISTRY AT 298.15K
--------------------------

Temperature         ... 298.15 K
Pressure            ... 1.00 atm
Total Mass          ... 136.17 AMU

Throughout the following assumptions are being made:
  (1) The electronic state is orbitally nondegenerate
  (2) There are no thermally accessible electronically excited states
  (3) Hindered rotations indicated by low frequency modes are not
      treated as such but are treated as vibrations and this may
      cause some error
  (4) All equations used are the standard statistical mechanics
      equations for an ideal gas
  (5) All vibrations are strictly harmonic

freq.      55.40  E(vib)   ...       0.52
freq.      99.10  E(vib)   ...       0.46
freq.     210.52  E(vib)   ...       0.34
freq.     223.93  E(vib)   ...       0.33
freq.     253.74  E(vib)   ...       0.30
freq.     306.57  E(vib)   ...       0.26
freq.     354.90  E(vib)   ...       0.22
freq.     407.84  E(vib)   ...       0.19
freq.     426.94  E(vib)   ...       0.18
freq.     435.89  E(vib)   ...       0.17
freq.     479.94  E(vib)   ...       0.15
freq.     507.38  E(vib)   ...       0.14
freq.     547.84  E(vib)   ...       0.12
freq.     649.72  E(vib)   ...       0.08
freq.     714.77  E(vib)   ...       0.07
freq.     747.18  E(vib)   ...       0.06
freq.     806.69  E(vib)   ...       0.05
freq.     849.83  E(vib)   ...       0.04
freq.     854.63  E(vib)   ...       0.04
freq.     934.68  E(vib)   ...       0.03
freq.     956.19  E(vib)   ...       0.03
freq.     972.57  E(vib)   ...       0.03
freq.    1002.54  E(vib)   ...       0.02
freq.    1068.11  E(vib)   ...       0.02
freq.    1107.30  E(vib)   ...       0.02
freq.    1114.34  E(vib)   ...       0.01
freq.    1168.28  E(vib)   ...       0.01
freq.    1173.51  E(vib)   ...       0.01
freq.    1178.05  E(vib)   ...       0.01
freq.    1234.61  E(vib)   ...       0.01
freq.    1271.92  E(vib)   ...       0.01
freq.    1327.29  E(vib)   ...       0.01
freq.    1337.93  E(vib)   ...       0.01
freq.    1390.84  E(vib)   ...       0.00
freq.    1426.45  E(vib)   ...       0.00
freq.    1452.18  E(vib)   ...       0.00
freq.    1454.25  E(vib)   ...       0.00
freq.    1463.30  E(vib)   ...       0.00
freq.    1471.49  E(vib)   ...       0.00
freq.    1480.17  E(vib)   ...       0.00
freq.    1495.96  E(vib)   ...       0.00
freq.    1536.09  E(vib)   ...       0.00
freq.    1574.59  E(vib)   ...       0.00
freq.    1659.33  E(vib)   ...       0.00
freq.    2940.04  E(vib)   ...       0.00
freq.    2944.69  E(vib)   ...       0.00
freq.    3076.00  E(vib)   ...       0.00
freq.    3081.50  E(vib)   ...       0.00
freq.    3125.88  E(vib)   ...       0.00
freq.    3142.85  E(vib)   ...       0.00
freq.    3149.44  E(vib)   ...       0.00
freq.    3151.32  E(vib)   ...       0.00
freq.    3170.74  E(vib)   ...       0.00
freq.    3190.64  E(vib)   ...       0.00

------------
INNER ENERGY
------------

The inner energy is: U= E(el) + E(ZPE) + E(vib) + E(rot) + E(trans)
    E(el)   - is the total energy from the electronic structure calculation
              = E(kin-el) + E(nuc-el) + E(el-el) + E(nuc-nuc)
    E(ZPE)  - the the zero temperature vibrational energy from the frequency calculation
    E(vib)  - the the finite temperature correction to E(ZPE) due to population
              of excited vibrational states
    E(rot)  - is the rotational thermal energy
    E(trans)- is the translational thermal energy

Summary of contributions to the inner energy U:
Electronic energy                ...   -440.62051631 Eh
Zero point energy                ...      0.16438783 Eh     103.15 kcal/mol
Thermal vibrational correction   ...      0.00633671 Eh       3.98 kcal/mol
Thermal rotational correction    ...      0.00141627 Eh       0.89 kcal/mol
Thermal translational correction ...      0.00141627 Eh       0.89 kcal/mol
-----------------------------------------------------------------------
Total thermal energy                   -440.44695922 Eh

Summary of corrections to the electronic energy:
(perhaps to be used in another calculation)
Total thermal correction                  0.00916925 Eh       5.75 kcal/mol
Non-thermal (ZPE) correction              0.16438783 Eh     103.15 kcal/mol
-----------------------------------------------------------------------
Total correction                          0.17355709 Eh     108.91 kcal/mol

--------
ENTHALPY
--------

The enthalpy is H = U + kB*T
                kB is Boltzmann's constant
Total free energy                 ...   -440.44695922 Eh
Thermal Enthalpy correction       ...      0.00094421 Eh       0.59 kcal/mol
-----------------------------------------------------------------------
Total Enthalpy                    ...   -440.44601501 Eh

Note: Only C1 symmetry has been detected, increase convergence thresholds
      if your molecule has a higher symmetry. Symmetry factor of 1.0 is
      used for the rotational entropy correction.

Note: Rotational entropy computed according to Herzberg
Infrared and Raman Spectra, Chapter V,1, Van Nostrand Reinhold, 1945
Point Group:  C1, Symmetry Number:   1
Rotational constants in cm-1:     0.118753     0.026600     0.022758

Vibrational entropy computed according to the QRRHO of S. Grimme
Chem.Eur.J. 2012 18 9955

-------
ENTROPY
-------

The entropy contributions are T*S = T*(S(el)+S(vib)+S(rot)+S(trans))
     S(el)   - electronic entropy
     S(vib)  - vibrational entropy
     S(rot)  - rotational entropy
     S(trans)- translational entropy
The entropies will be listed as multiplied by the temperature to get
units of energy

Electronic entropy                ...      0.00000000 Eh      0.00 kcal/mol
Vibrational entropy               ...      0.01042517 Eh      6.54 kcal/mol
Rotational entropy                ...      0.01401474 Eh      8.79 kcal/mol
Translational entropy             ...      0.01930853 Eh     12.12 kcal/mol
-----------------------------------------------------------------------
Final entropy term                ...      0.04374845 Eh     27.45 kcal/mol

In case the symmetry of your molecule has not been determined correctly
or in case you have a reason to use a different symmetry number we print
out the resulting rotational entropy values for sn=1,12 :
 --------------------------------------------------------
|  sn= 1 | S(rot)=       0.01401474 Eh      8.79 kcal/mol|
|  sn= 2 | S(rot)=       0.01336029 Eh      8.38 kcal/mol|
|  sn= 3 | S(rot)=       0.01297746 Eh      8.14 kcal/mol|
|  sn= 4 | S(rot)=       0.01270583 Eh      7.97 kcal/mol|
|  sn= 5 | S(rot)=       0.01249514 Eh      7.84 kcal/mol|
|  sn= 6 | S(rot)=       0.01232300 Eh      7.73 kcal/mol|
|  sn= 7 | S(rot)=       0.01217745 Eh      7.64 kcal/mol|
|  sn= 8 | S(rot)=       0.01205138 Eh      7.56 kcal/mol|
|  sn= 9 | S(rot)=       0.01194017 Eh      7.49 kcal/mol|

                             ****ORCA TERMINATED NORMALLY****
TOTAL RUN TIME: 0 days 0 hours 6 minutes 8 seconds 831 msec
