                         Program Version 5.0.4 -  RELEASE  -
|  1> %pal nprocs 24 end
|  2> %maxcore 3500
|  3> ! PBE0 D3BJ def2-TZVP TightSCF OPT FREQ TightOpt
|  4> ! CPCM(dmso)
|  5> %scf
|  6> MaxIter 800
|  7> end
|  8> %geom
|  9> MaxIter 800
| 10> MaxStep 0.2
| 11> end
| 12> *xyz -1 1
| 13>
| 14> C       0.02591600     -0.53583300     -1.57053900
| 15> C       0.01727500      0.70233100     -0.90665000
| 16> C       0.01899200     -1.72773200     -0.82622900
| 17> H       0.02300200      1.61330600     -1.49160000
| 18> H       0.02619700     -2.67486400     -1.35050000
| 19> C       0.00176200      0.75001900      0.45730400
| 20> C       0.00339400     -1.68552000      0.53757300
| 21> H      -0.00506700      1.70675600      0.96920700
| 22> H      -0.00211400     -2.60596900      1.11224600
| 23> C      -0.00636700     -0.44231600      1.26836800
| 24> O      -0.02073900     -0.40142000      2.52328800
| 25> N       0.04123200     -0.58344100     -2.97220100
| 26> O       0.04876100     -1.68064000     -3.53993400
| 27> O       0.04709200      0.47158900     -3.61498000
| 28> *
| 29>
| 30>                          ****END OF INPUT****
 Total Charge           Charge          ....   -1
 Multiplicity           Mult            ....    1
 Number of Electrons    NEL             ....   72
Dispersion correction           -0.013059452
FINAL SINGLE POINT ENERGY      -511.178370262240
Dispersion correction            ... done
Dispersion correction           -0.013058657
FINAL SINGLE POINT ENERGY      -511.178370933491
Dispersion correction            ... done
Dispersion correction           -0.013057330
FINAL SINGLE POINT ENERGY      -511.178369554707
Dispersion correction            ... done
Dispersion correction           -0.013058434
FINAL SINGLE POINT ENERGY      -511.178371355580
Dispersion correction            ... done
                    ***********************HURRAY********************

CARTESIAN COORDINATES (ANGSTROEM)
---------------------------------
  C      0.026013   -0.535824   -1.570995
  C      0.017318    0.702488   -0.906504
  C      0.019032   -1.727607   -0.825954
  H      0.023015    1.612827   -1.492438
  H      0.026197   -2.674311   -1.351008
  C      0.001813    0.750265    0.457411
  C      0.003431   -1.685707    0.537922
  H     -0.005131    1.706152    0.970749
  H     -0.002206   -2.605774    1.113036
  C     -0.006070   -0.442284    1.268465
  O     -0.021015   -0.401222    2.523317
  N      0.041305   -0.583514   -2.972652
  O      0.048704   -1.680791   -3.540433
  O      0.046931    0.471567   -3.615561

 Multiplicity           Mult            ....    1
 Number of Electrons    NEL             ....   72
 Basis Dimension        Dim             ....  334

ORBITAL ENERGIES
----------------

  NO   OCC          E(Eh)            E(eV)
   0   2.0000     -19.209205      -522.7090
   1   2.0000     -19.209115      -522.7066
   2   2.0000     -19.143678      -520.9260
   3   2.0000     -14.595555      -397.1652
   4   2.0000     -10.271365      -279.4980
   5   2.0000     -10.250241      -278.9232
   6   2.0000     -10.229481      -278.3583
   7   2.0000     -10.229360      -278.3550
   8   2.0000     -10.207752      -277.7670
   9   2.0000     -10.207718      -277.7661
  10   2.0000      -1.237046       -33.6617
  11   2.0000      -1.053417       -28.6649
  12   2.0000      -1.014517       -27.6064
  13   2.0000      -0.885270       -24.0894
  14   2.0000      -0.796746       -21.6805
  15   2.0000      -0.770035       -20.9537
  16   2.0000      -0.673578       -18.3290
  17   2.0000      -0.622476       -16.9384
  18   2.0000      -0.583754       -15.8848
  19   2.0000      -0.560379       -15.2487
  20   2.0000      -0.535461       -14.5706
  21   2.0000      -0.520005       -14.1500
  22   2.0000      -0.469983       -12.7889
  23   2.0000      -0.468178       -12.7398
  24   2.0000      -0.441106       -12.0031
  25   2.0000      -0.431361       -11.7379
  26   2.0000      -0.403884       -10.9902
  27   2.0000      -0.390563       -10.6278
  28   2.0000      -0.356076        -9.6893
  29   2.0000      -0.334907        -9.1133
  30   2.0000      -0.317368        -8.6360
  31   2.0000      -0.312883        -8.5140
  32   2.0000      -0.289897        -7.8885
  33   2.0000      -0.271066        -7.3761
  34   2.0000      -0.241843        -6.5809
  35   2.0000      -0.206833        -5.6282
  36   0.0000      -0.064308        -1.7499
  37   0.0000       0.001651         0.0449
  38   0.0000       0.050969         1.3869
  39   0.0000       0.079510         2.1636
  40   0.0000       0.103488         2.8160

MULLIKEN ATOMIC CHARGES
-----------------------
   0 C :    0.102273
   1 C :   -0.215854
   2 C :   -0.215437
   3 H :    0.152677
   4 H :    0.152676
   5 C :   -0.249465
   6 C :   -0.249829
   7 H :    0.123236
   8 H :    0.123148
   9 C :    0.271570
  10 O :   -0.560872
  11 N :    0.445480
  12 O :   -0.439912
  13 O :   -0.439691
Sum of atomic charges:   -1.0000000

LOEWDIN ATOMIC CHARGES
----------------------
   0 C :   -0.239372
   1 C :   -0.129155
   2 C :   -0.129175
   3 H :    0.156160
   4 H :    0.156165
   5 C :   -0.155996
   6 C :   -0.156043
   7 H :    0.145921
   8 H :    0.145925
   9 C :   -0.398871
  10 O :   -0.093764
  11 N :   -0.036898
  12 O :   -0.132448
  13 O :   -0.132450

  Mayer bond orders larger than 0.100000
B(  0-C ,  1-C ) :   1.2546 B(  0-C ,  2-C ) :   1.2537 B(  0-C , 11-N ) :   1.1646
B(  1-C ,  3-H ) :   0.9355 B(  1-C ,  5-C ) :   1.5355 B(  2-C ,  4-H ) :   0.9354
B(  2-C ,  6-C ) :   1.5358 B(  5-C ,  7-H ) :   0.9783 B(  5-C ,  9-C ) :   1.1557
B(  6-C ,  8-H ) :   0.9783 B(  6-C ,  9-C ) :   1.1554 B(  9-C , 10-O ) :   1.7684
B( 11-N , 12-O ) :   1.5163 B( 11-N , 13-O ) :   1.5170 B( 12-O , 13-O ) :   0.1186

Dispersion correction           -0.013058696
FINAL SINGLE POINT ENERGY      -511.178371407684

DIPOLE MOMENT
-------------
                                X             Y             Z
Electronic contribution:      0.03951      -0.11668      -3.52212
Nuclear contribution   :     -0.02970       0.09390       2.75463
                        -----------------------------------------
Total Dipole Moment    :      0.00981      -0.02278      -0.76748
                        -----------------------------------------
Magnitude (a.u.)       :      0.76789
Magnitude (Debye)      :      1.95181

Dispersion correction in the Hessian             ... done   (      0.2 sec)

VIBRATIONAL FREQUENCIES
-----------------------

Scaling factor for frequencies =  1.000000000  (already applied!)

   0:         0.00 cm**-1
   1:         0.00 cm**-1
   2:         0.00 cm**-1
   3:         0.00 cm**-1
   4:         0.00 cm**-1
   5:         0.00 cm**-1
   6:        88.31 cm**-1
   7:       100.88 cm**-1
   8:       234.68 cm**-1
   9:       261.22 cm**-1
  10:       372.04 cm**-1
  11:       426.71 cm**-1
  12:       450.32 cm**-1
  13:       485.95 cm**-1
  14:       553.63 cm**-1
  15:       634.29 cm**-1
  16:       652.24 cm**-1
  17:       730.96 cm**-1
  18:       798.36 cm**-1
  19:       801.80 cm**-1
  20:       829.20 cm**-1
  21:       867.46 cm**-1
  22:       872.02 cm**-1
  23:       988.74 cm**-1
  24:       993.80 cm**-1
  25:       996.30 cm**-1
  26:      1107.08 cm**-1
  27:      1133.11 cm**-1
  28:      1205.07 cm**-1
  29:      1276.69 cm**-1
  30:      1326.57 cm**-1
  31:      1341.50 cm**-1
  32:      1428.92 cm**-1
  33:      1485.13 cm**-1
  34:      1530.79 cm**-1
  35:      1580.09 cm**-1
  36:      1587.82 cm**-1
  37:      1650.09 cm**-1
  38:      3186.56 cm**-1
  39:      3187.20 cm**-1
  40:      3221.65 cm**-1
  41:      3224.03 cm**-1

IR SPECTRUM
-----------

 Mode   freq       eps      Int      T**2         TX        TY        TZ
       cm**-1   L/(mol*cm) km/mol    a.u.
----------------------------------------------------------------------------
  6:     88.31   0.000022    0.11  0.000078  (-0.008828  0.000157 -0.000040)
  7:    100.88   0.003408   17.22  0.010541  (-0.102664 -0.000149 -0.001036)
  8:    234.68   0.002145   10.84  0.002853  (-0.000096  0.053413  0.000194)
  9:    261.22   0.000037    0.19  0.000045  (-0.006691 -0.000087 -0.000022)
 10:    372.04   0.004191   21.18  0.003515  (-0.000717  0.003015  0.059206)
 11:    426.71   0.000000    0.00  0.000000  ( 0.000098 -0.000081  0.000113)
 12:    450.32   0.003076   15.55  0.002132  ( 0.000119 -0.046081  0.002899)
 13:    485.95   0.004017   20.30  0.002580  (-0.050785 -0.000156 -0.000866)
 14:    553.63   0.000737    3.72  0.000415  ( 0.000020  0.020234 -0.002422)
 15:    634.29   0.000448    2.26  0.000220  ( 0.000037 -0.014727 -0.001836)
 16:    652.24   0.026822  135.55  0.012833  (-0.001263  0.003298  0.113229)
 17:    730.96   0.005252   26.54  0.002242  ( 0.047346  0.000073  0.000719)
 18:    798.36   0.000000    0.00  0.000000  (-0.000096  0.000013  0.000006)
 19:    801.80   0.005154   26.05  0.002006  ( 0.044786  0.000064  0.000432)
 20:    829.20   0.000367    1.85  0.000138  (-0.000168  0.000735  0.011725)
 21:    867.46   0.004162   21.03  0.001497  (-0.000530  0.001261  0.038670)
 22:    872.02   0.018666   94.33  0.006680  ( 0.081726  0.000091  0.000809)
 23:    988.74   0.000000    0.00  0.000000  ( 0.000303 -0.000022  0.000138)
 24:    993.80   0.001924    9.72  0.000604  (-0.000351  0.000545  0.024572)
 25:    996.30   0.000305    1.54  0.000096  ( 0.009778  0.000048  0.000228)
 26:   1107.08   0.008764   44.29  0.002470  (-0.000201  0.048176  0.012224)
 27:   1133.11   0.143727  726.34  0.039583  ( 0.002220 -0.002980 -0.198920)
 28:   1205.07   0.011275   56.98  0.002920  ( 0.000574 -0.001090 -0.054022)
 29:   1276.69   0.000767    3.88  0.000188  (-0.000041  0.013629  0.001334)
 30:   1326.57   0.870153  4397.40  0.204695  (-0.005049  0.014825  0.452161)
 31:   1341.50   0.002769   13.99  0.000644  ( 0.000097 -0.024542 -0.006466)
 32:   1428.92   0.027491  138.93  0.006004  (-0.000886  0.002698  0.077432)
 33:   1485.13   0.081662  412.69  0.017159  ( 0.000095 -0.130918  0.004450)
 34:   1530.79   0.005107   25.81  0.001041  (-0.000022  0.032197 -0.002129)
 35:   1580.09   0.049679  251.06  0.009811  (-0.000061  0.098966 -0.004144)
 36:   1587.82   0.082472  416.78  0.016209  (-0.001509  0.004864  0.127212)
 37:   1650.09   0.125063  632.02  0.023652  (-0.001758  0.005081  0.153697)
 38:   3186.56   0.003316   16.76  0.000325  (-0.000039  0.017921  0.001878)
 39:   3187.20   0.004504   22.76  0.000441  ( 0.000240  0.001588 -0.020938)
 40:   3221.65   0.000843    4.26  0.000082  ( 0.000057 -0.007308 -0.005315)
 41:   3224.03   0.000844    4.26  0.000082  (-0.000073 -0.004726  0.007702)

--------------------------
THERMOCHEMISTRY AT 298.15K
--------------------------

Temperature         ... 298.15 K
Pressure            ... 1.00 atm
Total Mass          ... 138.10 AMU

Throughout the following assumptions are being made:
  (1) The electronic state is orbitally nondegenerate
  (2) There are no thermally accessible electronically excited states
  (3) Hindered rotations indicated by low frequency modes are not
      treated as such but are treated as vibrations and this may
      cause some error
  (4) All equations used are the standard statistical mechanics
      equations for an ideal gas
  (5) All vibrations are strictly harmonic

freq.      88.31  E(vib)   ...       0.48
freq.     100.88  E(vib)   ...       0.46
freq.     234.68  E(vib)   ...       0.32
freq.     261.22  E(vib)   ...       0.30
freq.     372.04  E(vib)   ...       0.21
freq.     426.71  E(vib)   ...       0.18
freq.     450.32  E(vib)   ...       0.17
freq.     485.95  E(vib)   ...       0.15
freq.     553.63  E(vib)   ...       0.12
freq.     634.29  E(vib)   ...       0.09
freq.     652.24  E(vib)   ...       0.08
freq.     730.96  E(vib)   ...       0.06
freq.     798.36  E(vib)   ...       0.05
freq.     801.80  E(vib)   ...       0.05
freq.     829.20  E(vib)   ...       0.04
freq.     867.46  E(vib)   ...       0.04
freq.     872.02  E(vib)   ...       0.04
freq.     988.74  E(vib)   ...       0.02
freq.     993.80  E(vib)   ...       0.02
freq.     996.30  E(vib)   ...       0.02
freq.    1107.08  E(vib)   ...       0.02
freq.    1133.11  E(vib)   ...       0.01
freq.    1205.07  E(vib)   ...       0.01
freq.    1276.69  E(vib)   ...       0.01
freq.    1326.57  E(vib)   ...       0.01
freq.    1341.50  E(vib)   ...       0.01
freq.    1428.92  E(vib)   ...       0.00
freq.    1485.13  E(vib)   ...       0.00
freq.    1530.79  E(vib)   ...       0.00
freq.    1580.09  E(vib)   ...       0.00
freq.    1587.82  E(vib)   ...       0.00
freq.    1650.09  E(vib)   ...       0.00
freq.    3186.56  E(vib)   ...       0.00
freq.    3187.20  E(vib)   ...       0.00
freq.    3221.65  E(vib)   ...       0.00
freq.    3224.03  E(vib)   ...       0.00

------------
INNER ENERGY
------------

The inner energy is: U= E(el) + E(ZPE) + E(vib) + E(rot) + E(trans)
    E(el)   - is the total energy from the electronic structure calculation
              = E(kin-el) + E(nuc-el) + E(el-el) + E(nuc-nuc)
    E(ZPE)  - the the zero temperature vibrational energy from the frequency calculation
    E(vib)  - the the finite temperature correction to E(ZPE) due to population
              of excited vibrational states
    E(rot)  - is the rotational thermal energy
    E(trans)- is the translational thermal energy

Summary of contributions to the inner energy U:
Electronic energy                ...   -511.17837141 Eh
Zero point energy                ...      0.09479728 Eh      59.49 kcal/mol
Thermal vibrational correction   ...      0.00473524 Eh       2.97 kcal/mol
Thermal rotational correction    ...      0.00141627 Eh       0.89 kcal/mol
Thermal translational correction ...      0.00141627 Eh       0.89 kcal/mol
-----------------------------------------------------------------------
Total thermal energy                   -511.07600634 Eh

Summary of corrections to the electronic energy:
(perhaps to be used in another calculation)
Total thermal correction                  0.00756779 Eh       4.75 kcal/mol
Non-thermal (ZPE) correction              0.09479728 Eh      59.49 kcal/mol
-----------------------------------------------------------------------
Total correction                          0.10236507 Eh      64.23 kcal/mol

--------
ENTHALPY
--------

The enthalpy is H = U + kB*T
                kB is Boltzmann's constant
Total free energy                 ...   -511.07600634 Eh
Thermal Enthalpy correction       ...      0.00094421 Eh       0.59 kcal/mol
-----------------------------------------------------------------------
Total Enthalpy                    ...   -511.07506213 Eh

Note: Only C1 symmetry has been detected, increase convergence thresholds
      if your molecule has a higher symmetry. Symmetry factor of 1.0 is
      used for the rotational entropy correction.

Note: Rotational entropy computed according to Herzberg
Infrared and Raman Spectra, Chapter V,1, Van Nostrand Reinhold, 1945
Point Group:  C1, Symmetry Number:   1
Rotational constants in cm-1:     0.132803     0.028346     0.023360

Vibrational entropy computed according to the QRRHO of S. Grimme
Chem.Eur.J. 2012 18 9955

-------
ENTROPY
-------

The entropy contributions are T*S = T*(S(el)+S(vib)+S(rot)+S(trans))
     S(el)   - electronic entropy
     S(vib)  - vibrational entropy
     S(rot)  - rotational entropy
     S(trans)- translational entropy
The entropies will be listed as multiplied by the temperature to get
units of energy

Electronic entropy                ...      0.00000000 Eh      0.00 kcal/mol
Vibrational entropy               ...      0.00779769 Eh      4.89 kcal/mol
Rotational entropy                ...      0.01391961 Eh      8.73 kcal/mol
Translational entropy             ...      0.01932845 Eh     12.13 kcal/mol
-----------------------------------------------------------------------
Final entropy term                ...      0.04104575 Eh     25.76 kcal/mol

In case the symmetry of your molecule has not been determined correctly
or in case you have a reason to use a different symmetry number we print
out the resulting rotational entropy values for sn=1,12 :
 --------------------------------------------------------
|  sn= 1 | S(rot)=       0.01391961 Eh      8.73 kcal/mol|
|  sn= 2 | S(rot)=       0.01326516 Eh      8.32 kcal/mol|
|  sn= 3 | S(rot)=       0.01288233 Eh      8.08 kcal/mol|
|  sn= 4 | S(rot)=       0.01261070 Eh      7.91 kcal/mol|
|  sn= 5 | S(rot)=       0.01240001 Eh      7.78 kcal/mol|
|  sn= 6 | S(rot)=       0.01222787 Eh      7.67 kcal/mol|
|  sn= 7 | S(rot)=       0.01208232 Eh      7.58 kcal/mol|
|  sn= 8 | S(rot)=       0.01195624 Eh      7.50 kcal/mol|
|  sn= 9 | S(rot)=       0.01184504 Eh      7.43 kcal/mol|
|  sn=10 | S(rot)=       0.01174556 Eh      7.37 kcal/mol|
|  sn=11 | S(rot)=       0.01165557 Eh      7.31 kcal/mol|
|  sn=12 | S(rot)=       0.01157341 Eh      7.26 kcal/mol|
 --------------------------------------------------------

-------------------
GIBBS FREE ENERGY
-------------------

The Gibbs free energy is G = H - T*S

Total enthalpy                    ...   -511.07506213 Eh
Total entropy correction          ...     -0.04104575 Eh    -25.76 kcal/mol
-----------------------------------------------------------------------
Final Gibbs free energy         ...   -511.11610788 Eh

For completeness - the Gibbs free energy minus the electronic energy

                             ****ORCA TERMINATED NORMALLY****
TOTAL RUN TIME: 0 days 0 hours 5 minutes 22 seconds 26 msec
