                         Program Version 5.0.4 -  RELEASE  -
|  1> %pal nprocs 24 end
|  2> %maxcore 3500
|  3> ! PBE0 D3BJ def2-TZVP TightSCF OPT FREQ TightOpt
|  4> ! CPCM(dmso)
|  5> %scf
|  6> MaxIter 800
|  7> end
|  8> %geom
|  9> MaxIter 800
| 10> MaxStep 0.2
| 11> end
| 12> *xyz 0 1
| 13>
| 14> C       0.02569600     -0.53358600     -1.54869600
| 15> C       0.01761600      0.70081300     -0.91353300
| 16> C       0.01884900     -1.72102800     -0.82633400
| 17> H       0.02321600      1.61123100     -1.49683900
| 18> H       0.02546100     -2.66949700     -1.34553200
| 19> C       0.00251300      0.74812600      0.46342700
| 20> C       0.00376200     -1.67272400      0.54945200
| 21> H      -0.00402500      1.70235000      0.97881800
| 22> H      -0.00191300     -2.58298400      1.13628400
| 23> C      -0.00434800     -0.43745500      1.20103400
| 24> O      -0.01869000     -0.44496000      2.54073200
| 25> H      -0.02318700      0.45852900      2.88183900
| 26> N       0.04133900     -0.58419100     -2.99077700
| 27> O       0.04798200     -1.67671600     -3.53088400
| 28> O       0.04665800      0.46719700     -3.60736700
| 29> *
| 30>
| 31>                          ****END OF INPUT****
 Total Charge           Charge          ....    0
 Multiplicity           Mult            ....    1
 Number of Electrons    NEL             ....   72
Dispersion correction           -0.013641583
FINAL SINGLE POINT ENERGY      -511.646348302450
Dispersion correction            ... done
Dispersion correction           -0.013640684
FINAL SINGLE POINT ENERGY      -511.646348012675
Dispersion correction            ... done
Dispersion correction           -0.013639500
FINAL SINGLE POINT ENERGY      -511.646348591801
Dispersion correction            ... done
Dispersion correction           -0.013640745
FINAL SINGLE POINT ENERGY      -511.646348905144
Dispersion correction            ... done
                    ***********************HURRAY********************

CARTESIAN COORDINATES (ANGSTROEM)
---------------------------------
  C      0.025609   -0.533587   -1.548917
  C      0.017555    0.700808   -0.913379
  C      0.018787   -1.721032   -0.826206
  H      0.023133    1.610855   -1.497235
  H      0.025377   -2.669192   -1.345942
  C      0.002504    0.748210    0.463722
  C      0.003750   -1.672850    0.549727
  H     -0.004005    1.702236    0.979360
  H     -0.001908   -2.582881    1.136791
  C     -0.004327   -0.437484    1.201410
  O     -0.018604   -0.444949    2.541218
  H     -0.023159    0.458675    2.881846
  N      0.041199   -0.584198   -2.991430
  O      0.048198   -1.676775   -3.531441
  O      0.046820    0.467268   -3.607899

 Multiplicity           Mult            ....    1
 Number of Electrons    NEL             ....   72
 Basis Dimension        Dim             ....  340

ORBITAL ENERGIES
----------------

  NO   OCC          E(Eh)            E(eV)
   0   2.0000     -19.255646      -523.9728
   1   2.0000     -19.241897      -523.5986
   2   2.0000     -19.241834      -523.5969
   3   2.0000     -14.627549      -398.0359
   4   2.0000     -10.313635      -280.6483
   5   2.0000     -10.282632      -279.8046
   6   2.0000     -10.254916      -279.0504
   7   2.0000     -10.254124      -279.0289
   8   2.0000     -10.243084      -278.7285
   9   2.0000     -10.240960      -278.6707
  10   2.0000      -1.276176       -34.7265
  11   2.0000      -1.117291       -30.4030
  12   2.0000      -1.094257       -29.7763
  13   2.0000      -0.919008       -25.0075
  14   2.0000      -0.833031       -22.6679
  15   2.0000      -0.799992       -21.7689
  16   2.0000      -0.724750       -19.7214
  17   2.0000      -0.665858       -18.1189
  18   2.0000      -0.626478       -17.0473
  19   2.0000      -0.590416       -16.0660
  20   2.0000      -0.580248       -15.7894
  21   2.0000      -0.566134       -15.4053
  22   2.0000      -0.547491       -14.8980
  23   2.0000      -0.511425       -13.9166
  24   2.0000      -0.476223       -12.9587
  25   2.0000      -0.460163       -12.5217
  26   2.0000      -0.453868       -12.3504
  27   2.0000      -0.447957       -12.1895
  28   2.0000      -0.417681       -11.3657
  29   2.0000      -0.381216       -10.3734
  30   2.0000      -0.372020       -10.1232
  31   2.0000      -0.339755        -9.2452
  32   2.0000      -0.339751        -9.2451
  33   2.0000      -0.318840        -8.6761
  34   2.0000      -0.293124        -7.9763
  35   2.0000      -0.264135        -7.1875
  36   0.0000      -0.089175        -2.4266
  37   0.0000      -0.026456        -0.7199
  38   0.0000       0.014220         0.3869
  39   0.0000       0.058123         1.5816
  40   0.0000       0.069007         1.8778

MULLIKEN ATOMIC CHARGES
-----------------------
   0 C :    0.114921
   1 C :   -0.197552
   2 C :   -0.189001
   3 H :    0.176523
   4 H :    0.173158
   5 C :   -0.198942
   6 C :   -0.206340
   7 H :    0.172231
   8 H :    0.159899
   9 C :    0.279080
  10 O :   -0.399068
  11 H :    0.377696
  12 N :    0.478768
  13 O :   -0.370609
  14 O :   -0.370765
Sum of atomic charges:   -0.0000000

LOEWDIN ATOMIC CHARGES
----------------------
   0 C :   -0.189114
   1 C :   -0.088007
   2 C :   -0.088331
   3 H :    0.166831
   4 H :    0.166548
   5 C :   -0.117231
   6 C :   -0.108217
   7 H :    0.165251
   8 H :    0.163742
   9 C :   -0.267280
  10 O :    0.119772
  11 H :    0.217163
  12 N :   -0.028982
  13 O :   -0.055927
  14 O :   -0.056220

  Mayer bond orders larger than 0.100000
B(  0-C ,  1-C ) :   1.3572 B(  0-C ,  2-C ) :   1.3445 B(  0-C , 12-N ) :   1.0404
B(  1-C ,  3-H ) :   0.9302 B(  1-C ,  5-C ) :   1.4396 B(  2-C ,  4-H ) :   0.9454
B(  2-C ,  6-C ) :   1.4900 B(  5-C ,  7-H ) :   0.9545 B(  5-C ,  9-C ) :   1.3320
B(  6-C ,  8-H ) :   0.9732 B(  6-C ,  9-C ) :   1.3416 B(  9-C , 10-O ) :   1.1873
B( 10-O , 11-H ) :   0.8417 B( 12-N , 13-O ) :   1.5966 B( 12-N , 14-O ) :   1.5974
B( 13-O , 14-O ) :   0.1743

Dispersion correction           -0.013640619
FINAL SINGLE POINT ENERGY      -511.646348946084

DIPOLE MOMENT
-------------
                                X             Y             Z
Electronic contribution:      0.03719      -0.17384      -3.42646
Nuclear contribution   :     -0.06855       1.00887       6.23757
                        -----------------------------------------
Total Dipole Moment    :     -0.03136       0.83504       2.81111
                        -----------------------------------------
Magnitude (a.u.)       :      2.93268
Magnitude (Debye)      :      7.45428

Dispersion correction in the Hessian             ... done   (      0.2 sec)

VIBRATIONAL FREQUENCIES
-----------------------

Scaling factor for frequencies =  1.000000000  (already applied!)

   0:         0.00 cm**-1
   1:         0.00 cm**-1
   2:         0.00 cm**-1
   3:         0.00 cm**-1
   4:         0.00 cm**-1
   5:         0.00 cm**-1
   6:        61.20 cm**-1
   7:       114.77 cm**-1
   8:       231.25 cm**-1
   9:       301.18 cm**-1
  10:       368.33 cm**-1
  11:       412.98 cm**-1
  12:       419.94 cm**-1
  13:       436.99 cm**-1
  14:       509.57 cm**-1
  15:       546.80 cm**-1
  16:       645.43 cm**-1
  17:       649.75 cm**-1
  18:       716.98 cm**-1
  19:       795.56 cm**-1
  20:       825.91 cm**-1
  21:       839.69 cm**-1
  22:       877.80 cm**-1
  23:       895.40 cm**-1
  24:       985.09 cm**-1
  25:       992.86 cm**-1
  26:      1025.95 cm**-1
  27:      1125.46 cm**-1
  28:      1139.29 cm**-1
  29:      1198.78 cm**-1
  30:      1203.93 cm**-1
  31:      1322.90 cm**-1
  32:      1336.93 cm**-1
  33:      1397.78 cm**-1
  34:      1418.49 cm**-1
  35:      1488.17 cm**-1
  36:      1542.76 cm**-1
  37:      1591.67 cm**-1
  38:      1657.55 cm**-1
  39:      1670.32 cm**-1
  40:      3204.20 cm**-1
  41:      3218.69 cm**-1
  42:      3243.17 cm**-1
  43:      3244.89 cm**-1
  44:      3802.97 cm**-1

IR SPECTRUM
-----------

 Mode   freq       eps      Int      T**2         TX        TY        TZ
       cm**-1   L/(mol*cm) km/mol    a.u.
----------------------------------------------------------------------------
  6:     61.20   0.000132    0.67  0.000672  (-0.025927 -0.000046 -0.000200)
  7:    114.77   0.000367    1.86  0.000999  (-0.031594 -0.000008 -0.000560)
  8:    231.25   0.000688    3.48  0.000929  (-0.000431  0.025037  0.017369)
  9:    301.18   0.000265    1.34  0.000274  (-0.016560 -0.000038  0.000075)
 10:    368.33   0.000113    0.57  0.000096  ( 0.000932 -0.000121  0.009758)
 11:    412.98   0.020870  105.47  0.015770  ( 0.125503 -0.000747 -0.004304)
 12:    419.94   0.002664   13.46  0.001980  (-0.008492 -0.008667 -0.042809)
 13:    436.99   0.016135   81.54  0.011522  (-0.107297 -0.000662 -0.003032)
 14:    509.57   0.003125   15.79  0.001914  (-0.043745 -0.000061 -0.000605)
 15:    546.80   0.000901    4.55  0.000514  (-0.000380  0.017988 -0.013796)
 16:    645.43   0.000925    4.68  0.000447  ( 0.000233 -0.013009  0.016674)
 17:    649.75   0.010059   50.83  0.004831  (-0.001287  0.002362  0.069453)
 18:    716.98   0.003540   17.89  0.001541  ( 0.039246  0.000061  0.000565)
 19:    795.56   0.011265   56.93  0.004419  ( 0.066467  0.000102  0.000851)
 20:    825.91   0.000144    0.73  0.000055  ( 0.007382  0.000029  0.000135)
 21:    839.69   0.000088    0.45  0.000033  (-0.000152  0.000160  0.005721)
 22:    877.80   0.012535   63.35  0.004456  ( 0.066749  0.000114  0.000842)
 23:    895.40   0.014532   73.44  0.005065  (-0.000831  0.003330  0.071083)
 24:    985.09   0.000077    0.39  0.000024  (-0.004926  0.000073  0.000021)
 25:    992.86   0.000084    0.43  0.000027  (-0.005147 -0.000080 -0.000049)
 26:   1025.95   0.000064    0.32  0.000019  (-0.000051  0.001895  0.003982)
 27:   1125.46   0.006653   33.62  0.001845  ( 0.000179 -0.037560 -0.020832)
 28:   1139.29   0.077022  389.24  0.021097  (-0.001547  0.005636  0.145131)
 29:   1198.78   0.001529    7.72  0.000398  ( 0.000164  0.005181 -0.019262)
 30:   1203.93   0.054473  275.28  0.014119  (-0.001014 -0.000386  0.118821)
 31:   1322.90   0.103249  521.78  0.024356  (-0.001679  0.006684  0.155911)
 32:   1336.93   0.010626   53.70  0.002480  (-0.000635  0.000604  0.049796)
 33:   1397.78   0.208316  1052.75  0.046508  ( 0.002325 -0.004339 -0.215601)
 34:   1418.49   0.003629   18.34  0.000798  (-0.000070  0.027955 -0.004121)
 35:   1488.17   0.008668   43.80  0.001818  (-0.000294 -0.026868  0.033100)
 36:   1542.76   0.020169  101.92  0.004080  ( 0.000709 -0.017817 -0.061333)
 37:   1591.67   0.101270  511.78  0.019855  ( 0.000157 -0.140859 -0.003705)
 38:   1657.55   0.059394  300.15  0.011182  (-0.001061 -0.026509  0.102363)
 39:   1670.32   0.026695  134.91  0.004987  ( 0.000433 -0.062123 -0.033584)
 40:   3204.20   0.000596    3.01  0.000058  ( 0.000092 -0.000450 -0.007607)
 41:   3218.69   0.000184    0.93  0.000018  (-0.000048 -0.000611  0.004180)
 42:   3243.17   0.001068    5.40  0.000103  (-0.000075 -0.006487  0.007790)
 43:   3244.89   0.000972    4.91  0.000093  ( 0.000080 -0.006740 -0.006928)
 44:   3802.97   0.056256  284.30  0.004616  (-0.000605  0.041312  0.053937)

--------------------------
THERMOCHEMISTRY AT 298.15K
--------------------------

Temperature         ... 298.15 K
Pressure            ... 1.00 atm
Total Mass          ... 139.11 AMU

Throughout the following assumptions are being made:
  (1) The electronic state is orbitally nondegenerate
  (2) There are no thermally accessible electronically excited states
  (3) Hindered rotations indicated by low frequency modes are not
      treated as such but are treated as vibrations and this may
      cause some error
  (4) All equations used are the standard statistical mechanics
      equations for an ideal gas
  (5) All vibrations are strictly harmonic

freq.      61.20  E(vib)   ...       0.51
freq.     114.77  E(vib)   ...       0.44
freq.     231.25  E(vib)   ...       0.32
freq.     301.18  E(vib)   ...       0.26
freq.     368.33  E(vib)   ...       0.21
freq.     412.98  E(vib)   ...       0.19
freq.     419.94  E(vib)   ...       0.18
freq.     436.99  E(vib)   ...       0.17
freq.     509.57  E(vib)   ...       0.14
freq.     546.80  E(vib)   ...       0.12
freq.     645.43  E(vib)   ...       0.09
freq.     649.75  E(vib)   ...       0.08
freq.     716.98  E(vib)   ...       0.07
freq.     795.56  E(vib)   ...       0.05
freq.     825.91  E(vib)   ...       0.04
freq.     839.69  E(vib)   ...       0.04
freq.     877.80  E(vib)   ...       0.04
freq.     895.40  E(vib)   ...       0.03
freq.     985.09  E(vib)   ...       0.02
freq.     992.86  E(vib)   ...       0.02
freq.    1025.95  E(vib)   ...       0.02
freq.    1125.46  E(vib)   ...       0.01
freq.    1139.29  E(vib)   ...       0.01
freq.    1198.78  E(vib)   ...       0.01
freq.    1203.93  E(vib)   ...       0.01
freq.    1322.90  E(vib)   ...       0.01
freq.    1336.93  E(vib)   ...       0.01
freq.    1397.78  E(vib)   ...       0.00
freq.    1418.49  E(vib)   ...       0.00
freq.    1488.17  E(vib)   ...       0.00
freq.    1542.76  E(vib)   ...       0.00
freq.    1591.67  E(vib)   ...       0.00
freq.    1657.55  E(vib)   ...       0.00
freq.    1670.32  E(vib)   ...       0.00
freq.    3204.20  E(vib)   ...       0.00
freq.    3218.69  E(vib)   ...       0.00
freq.    3243.17  E(vib)   ...       0.00
freq.    3244.89  E(vib)   ...       0.00
freq.    3802.97  E(vib)   ...       0.00

------------
INNER ENERGY
------------

The inner energy is: U= E(el) + E(ZPE) + E(vib) + E(rot) + E(trans)
    E(el)   - is the total energy from the electronic structure calculation
              = E(kin-el) + E(nuc-el) + E(el-el) + E(nuc-nuc)
    E(ZPE)  - the the zero temperature vibrational energy from the frequency calculation
    E(vib)  - the the finite temperature correction to E(ZPE) due to population
              of excited vibrational states
    E(rot)  - is the rotational thermal energy
    E(trans)- is the translational thermal energy

Summary of contributions to the inner energy U:
Electronic energy                ...   -511.64634895 Eh
Zero point energy                ...      0.10812499 Eh      67.85 kcal/mol
Thermal vibrational correction   ...      0.00501221 Eh       3.15 kcal/mol
Thermal rotational correction    ...      0.00141627 Eh       0.89 kcal/mol
Thermal translational correction ...      0.00141627 Eh       0.89 kcal/mol
-----------------------------------------------------------------------
Total thermal energy                   -511.53037920 Eh

Summary of corrections to the electronic energy:
(perhaps to be used in another calculation)
Total thermal correction                  0.00784475 Eh       4.92 kcal/mol
Non-thermal (ZPE) correction              0.10812499 Eh      67.85 kcal/mol
-----------------------------------------------------------------------
Total correction                          0.11596974 Eh      72.77 kcal/mol

--------
ENTHALPY
--------

The enthalpy is H = U + kB*T
                kB is Boltzmann's constant
Total free energy                 ...   -511.53037920 Eh
Thermal Enthalpy correction       ...      0.00094421 Eh       0.59 kcal/mol
-----------------------------------------------------------------------
Total Enthalpy                    ...   -511.52943500 Eh

Note: Only C1 symmetry has been detected, increase convergence thresholds
      if your molecule has a higher symmetry. Symmetry factor of 1.0 is
      used for the rotational entropy correction.

Note: Rotational entropy computed according to Herzberg
Infrared and Raman Spectra, Chapter V,1, Van Nostrand Reinhold, 1945
Point Group:  C1, Symmetry Number:   1
Rotational constants in cm-1:     0.133157     0.027728     0.022949

Vibrational entropy computed according to the QRRHO of S. Grimme
Chem.Eur.J. 2012 18 9955

-------
ENTROPY
-------

The entropy contributions are T*S = T*(S(el)+S(vib)+S(rot)+S(trans))
     S(el)   - electronic entropy
     S(vib)  - vibrational entropy
     S(rot)  - rotational entropy
     S(trans)- translational entropy
The entropies will be listed as multiplied by the temperature to get
units of energy

Electronic entropy                ...      0.00000000 Eh      0.00 kcal/mol
Vibrational entropy               ...      0.00817707 Eh      5.13 kcal/mol
Rotational entropy                ...      0.01393712 Eh      8.75 kcal/mol
Translational entropy             ...      0.01933875 Eh     12.14 kcal/mol
-----------------------------------------------------------------------
Final entropy term                ...      0.04145294 Eh     26.01 kcal/mol

In case the symmetry of your molecule has not been determined correctly
or in case you have a reason to use a different symmetry number we print
out the resulting rotational entropy values for sn=1,12 :
 --------------------------------------------------------
|  sn= 1 | S(rot)=       0.01393712 Eh      8.75 kcal/mol|
|  sn= 2 | S(rot)=       0.01328267 Eh      8.33 kcal/mol|
|  sn= 3 | S(rot)=       0.01289984 Eh      8.09 kcal/mol|
|  sn= 4 | S(rot)=       0.01262821 Eh      7.92 kcal/mol|
|  sn= 5 | S(rot)=       0.01241752 Eh      7.79 kcal/mol|
|  sn= 6 | S(rot)=       0.01224538 Eh      7.68 kcal/mol|
|  sn= 7 | S(rot)=       0.01209983 Eh      7.59 kcal/mol|
|  sn= 8 | S(rot)=       0.01197376 Eh      7.51 kcal/mol|
|  sn= 9 | S(rot)=       0.01186255 Eh      7.44 kcal/mol|
|  sn=10 | S(rot)=       0.01176307 Eh      7.38 kcal/mol|
|  sn=11 | S(rot)=       0.01167308 Eh      7.32 kcal/mol|
|  sn=12 | S(rot)=       0.01159092 Eh      7.27 kcal/mol|
 --------------------------------------------------------

-------------------
GIBBS FREE ENERGY
-------------------

The Gibbs free energy is G = H - T*S

Total enthalpy                    ...   -511.52943500 Eh
Total entropy correction          ...     -0.04145294 Eh    -26.01 kcal/mol
-----------------------------------------------------------------------

                             ****ORCA TERMINATED NORMALLY****
TOTAL RUN TIME: 0 days 0 hours 5 minutes 33 seconds 510 msec
