                         Program Version 5.0.4 -  RELEASE  -
|  1> %pal nprocs 24 end
|  2> %maxcore 3500
|  3> ! PBE0 D3BJ def2-TZVP TightSCF OPT FREQ TightOpt
|  4> ! CPCM(dmso)
|  5> %scf
|  6> MaxIter 800
|  7> end
|  8> %geom
|  9> MaxIter 800
| 10> MaxStep 0.2
| 11> end
| 12> *xyz -1 1
| 13>
| 14> C       0.00000000     -0.54892000     -1.57569300
| 15> C      -0.00000000      0.66973000     -0.89903000
| 16> C       0.00000000     -1.71787200     -0.81654300
| 17> H       0.00000000      1.59695200     -1.46680800
| 18> H      -0.00000000     -2.68209200     -1.31888200
| 19> C       0.00000000      0.72570700      0.48376400
| 20> C       0.00000000     -1.67841800      0.56698000
| 21> H      -0.00000000      1.68776000      0.99030500
| 22> H      -0.00000000     -2.60385500      1.13770400
| 23> C       0.00000000     -0.44972400      1.29710100
| 24> H       0.00000000     -0.58616400     -2.65908000
| 25> O       0.00000000     -0.40509200      2.57502300
| 26> *
| 27>
| 28>                          ****END OF INPUT****
 Total Charge           Charge          ....   -1
 Multiplicity           Mult            ....    1
 Number of Electrons    NEL             ....   50
Dispersion correction           -0.009880554
FINAL SINGLE POINT ENERGY      -306.761798994228
Dispersion correction            ... done
Dispersion correction           -0.009880350
FINAL SINGLE POINT ENERGY      -306.761799272968
Dispersion correction            ... done
                    ***********************HURRAY********************

CARTESIAN COORDINATES (ANGSTROEM)
---------------------------------
  C      0.000000   -0.548912   -1.576195
  C     -0.000000    0.669667   -0.899147
  C      0.000000   -1.717963   -0.816791
  H      0.000000    1.597325   -1.466064
  H     -0.000000   -2.682432   -1.318477
  C      0.000000    0.725660    0.483872
  C     -0.000000   -1.678412    0.566850
  H     -0.000000    1.687892    0.989866
  H      0.000000   -2.603512    1.137945
  C     -0.000000   -0.449735    1.297140
  H     -0.000000   -0.586171   -2.659465
  O      0.000000   -0.405394    2.575306

 Multiplicity           Mult            ....    1
 Number of Electrons    NEL             ....   50
 Basis Dimension        Dim             ....  247

ORBITAL ENERGIES
----------------

  NO   OCC          E(Eh)            E(eV)
   0   2.0000     -19.109112      -519.9854
   1   2.0000     -10.240743      -278.6648
   2   2.0000     -10.203411      -277.6489
   3   2.0000     -10.203409      -277.6489
   4   2.0000     -10.188530      -277.2440
   5   2.0000     -10.184395      -277.1315
   6   2.0000     -10.184360      -277.1305
   7   2.0000      -0.974479       -26.5169
   8   2.0000      -0.839110       -22.8333
   9   2.0000      -0.740583       -20.1523
  10   2.0000      -0.709698       -19.3119
  11   2.0000      -0.594433       -16.1754
  12   2.0000      -0.572711       -15.5843
  13   2.0000      -0.496081       -13.4991
  14   2.0000      -0.444833       -12.1045
  15   2.0000      -0.438221       -11.9246
  16   2.0000      -0.403134       -10.9698
  17   2.0000      -0.391488       -10.6529
  18   2.0000      -0.379504       -10.3268
  19   2.0000      -0.342542        -9.3210
  20   2.0000      -0.331147        -9.0110
  21   2.0000      -0.308777        -8.4022
  22   2.0000      -0.246114        -6.6971
  23   2.0000      -0.217165        -5.9094
  24   2.0000      -0.177620        -4.8333
  25   0.0000       0.016214         0.4412
  26   0.0000       0.045070         1.2264
  27   0.0000       0.079696         2.1686
  28   0.0000       0.105631         2.8744
  29   0.0000       0.114050         3.1035

MULLIKEN ATOMIC CHARGES
-----------------------
   0 C :   -0.232839
   1 C :   -0.168390
   2 C :   -0.168083
   3 H :    0.129089
   4 H :    0.129129
   5 C :   -0.293839
   6 C :   -0.294106
   7 H :    0.095590
   8 H :    0.095420
   9 C :    0.252157
  10 H :    0.130453
  11 O :   -0.674582
Sum of atomic charges:   -1.0000000

LOEWDIN ATOMIC CHARGES
----------------------
   0 C :   -0.244370
   1 C :   -0.198555
   2 C :   -0.198513
   3 H :    0.142551
   4 H :    0.142559
   5 C :   -0.199709
   6 C :   -0.199752
   7 H :    0.133412
   8 H :    0.133386
   9 C :   -0.441003
  10 H :    0.137012
  11 O :   -0.207018

  Mayer bond orders larger than 0.100000
B(  0-C ,  1-C ) :   1.3764 B(  0-C ,  2-C ) :   1.3762 B(  0-C , 10-H ) :   0.9742
B(  1-C ,  3-H ) :   0.9627 B(  1-C ,  5-C ) :   1.4128 B(  2-C ,  4-H ) :   0.9627
B(  2-C ,  6-C ) :   1.4129 B(  5-C ,  7-H ) :   0.9846 B(  5-C ,  9-C ) :   1.2233
B(  6-C ,  8-H ) :   0.9846 B(  6-C ,  9-C ) :   1.2236 B(  9-C , 11-O ) :   1.6575

Dispersion correction           -0.009880237
FINAL SINGLE POINT ENERGY      -306.761799404640

DIPOLE MOMENT
-------------
                                X             Y             Z
Electronic contribution:      0.00000       0.06281       1.80673
Nuclear contribution   :     -0.00000      -0.15238      -4.41335
                        -----------------------------------------
Total Dipole Moment    :      0.00000      -0.08957      -2.60662
                        -----------------------------------------
Magnitude (a.u.)       :      2.60816
Magnitude (Debye)      :      6.62942

Dispersion correction in the Hessian             ... done   (      0.2 sec)

VIBRATIONAL FREQUENCIES
-----------------------

Scaling factor for frequencies =  1.000000000  (already applied!)

   0:         0.00 cm**-1
   1:         0.00 cm**-1
   2:         0.00 cm**-1
   3:         0.00 cm**-1
   4:         0.00 cm**-1
   5:         0.00 cm**-1
   6:       197.86 cm**-1
   7:       426.93 cm**-1
   8:       447.98 cm**-1
   9:       515.44 cm**-1
  10:       536.68 cm**-1
  11:       617.84 cm**-1
  12:       704.80 cm**-1
  13:       745.36 cm**-1
  14:       814.08 cm**-1
  15:       841.30 cm**-1
  16:       868.51 cm**-1
  17:       948.82 cm**-1
  18:       956.04 cm**-1
  19:       987.50 cm**-1
  20:      1038.41 cm**-1
  21:      1079.88 cm**-1
  22:      1149.52 cm**-1
  23:      1163.79 cm**-1
  24:      1272.42 cm**-1
  25:      1350.10 cm**-1
  26:      1389.59 cm**-1
  27:      1482.12 cm**-1
  28:      1526.85 cm**-1
  29:      1583.37 cm**-1
  30:      1634.78 cm**-1
  31:      3146.94 cm**-1
  32:      3148.80 cm**-1
  33:      3167.00 cm**-1
  34:      3167.48 cm**-1
  35:      3198.64 cm**-1

IR SPECTRUM
-----------

 Mode   freq       eps      Int      T**2         TX        TY        TZ
       cm**-1   L/(mol*cm) km/mol    a.u.
----------------------------------------------------------------------------
  6:    197.86   0.000441    2.23  0.000695  ( 0.026371  0.000004 -0.000004)
  7:    426.93   0.000000    0.00  0.000000  ( 0.000383 -0.000003  0.000007)
  8:    447.98   0.001158    5.85  0.000807  (-0.000000 -0.028400  0.000024)
  9:    515.44   0.008335   42.12  0.005046  (-0.071036  0.000003 -0.000005)
 10:    536.68   0.003232   16.33  0.001880  (-0.000000 -0.001432 -0.043330)
 11:    617.84   0.000155    0.78  0.000078  (-0.000000  0.008841 -0.000342)
 12:    704.80   0.011390   57.56  0.005043  ( 0.071016 -0.000001 -0.000001)
 13:    745.36   0.015535   78.51  0.006504  (-0.080649 -0.000002  0.000001)
 14:    814.08   0.000000    0.00  0.000000  (-0.000031  0.000001  0.000001)
 15:    841.30   0.001588    8.03  0.000589  ( 0.000000  0.000565  0.024267)
 16:    868.51   0.008625   43.59  0.003099  ( 0.055668  0.000002  0.000001)
 17:    948.82   0.000040    0.20  0.000013  (-0.003609  0.000000 -0.000000)
 18:    956.04   0.000000    0.00  0.000000  (-0.000242  0.000003 -0.000002)
 19:    987.50   0.012433   62.83  0.003929  ( 0.000000  0.001712  0.062659)
 20:   1038.41   0.004542   22.95  0.001365  (-0.000000 -0.000956 -0.036934)
 21:   1079.88   0.004597   23.23  0.001329  (-0.000000 -0.036448  0.000256)
 22:   1149.52   0.001868    9.44  0.000507  (-0.000000  0.022508 -0.000598)
 23:   1163.79   0.010640   53.77  0.002853  (-0.000000 -0.001190 -0.053402)
 24:   1272.42   0.001419    7.17  0.000348  ( 0.000000 -0.018605  0.001382)
 25:   1350.10   0.007619   38.51  0.001761  (-0.000000 -0.041941  0.001449)
 26:   1389.59   0.054690  276.38  0.012282  ( 0.000000  0.003666  0.110763)
 27:   1482.12   0.004657   23.54  0.000981  ( 0.000000  0.031308  0.000589)
 28:   1526.85   0.136238  688.49  0.027845  (-0.000000 -0.005476 -0.166778)
 29:   1583.37   0.011188   56.54  0.002205  ( 0.000000  0.046916 -0.001967)
 30:   1634.78   0.078689  397.66  0.015021  ( 0.000000  0.004383  0.122482)
 31:   3146.94   0.010177   51.43  0.001009  ( 0.000000 -0.001096 -0.031748)
 32:   3148.80   0.000107    0.54  0.000011  ( 0.000000 -0.002140  0.002460)
 33:   3167.00   0.020938  105.81  0.002063  ( 0.000000  0.045357  0.002427)
 34:   3167.48   0.003801   19.21  0.000374  (-0.000000  0.012843 -0.014475)
 35:   3198.64   0.005226   26.41  0.000510  ( 0.000000  0.000809  0.022566)

--------------------------
THERMOCHEMISTRY AT 298.15K
--------------------------

Temperature         ... 298.15 K
Pressure            ... 1.00 atm
Total Mass          ... 93.10 AMU

Throughout the following assumptions are being made:
  (1) The electronic state is orbitally nondegenerate
  (2) There are no thermally accessible electronically excited states
  (3) Hindered rotations indicated by low frequency modes are not
      treated as such but are treated as vibrations and this may
      cause some error
  (4) All equations used are the standard statistical mechanics
      equations for an ideal gas
  (5) All vibrations are strictly harmonic

freq.     197.86  E(vib)   ...       0.35
freq.     426.93  E(vib)   ...       0.18
freq.     447.98  E(vib)   ...       0.17
freq.     515.44  E(vib)   ...       0.13
freq.     536.68  E(vib)   ...       0.12
freq.     617.84  E(vib)   ...       0.09
freq.     704.80  E(vib)   ...       0.07
freq.     745.36  E(vib)   ...       0.06
freq.     814.08  E(vib)   ...       0.05
freq.     841.30  E(vib)   ...       0.04
freq.     868.51  E(vib)   ...       0.04
freq.     948.82  E(vib)   ...       0.03
freq.     956.04  E(vib)   ...       0.03
freq.     987.50  E(vib)   ...       0.02
freq.    1038.41  E(vib)   ...       0.02
freq.    1079.88  E(vib)   ...       0.02
freq.    1149.52  E(vib)   ...       0.01
freq.    1163.79  E(vib)   ...       0.01
freq.    1272.42  E(vib)   ...       0.01
freq.    1350.10  E(vib)   ...       0.01
freq.    1389.59  E(vib)   ...       0.00
freq.    1482.12  E(vib)   ...       0.00
freq.    1526.85  E(vib)   ...       0.00
freq.    1583.37  E(vib)   ...       0.00
freq.    1634.78  E(vib)   ...       0.00
freq.    3146.94  E(vib)   ...       0.00
freq.    3148.80  E(vib)   ...       0.00
freq.    3167.00  E(vib)   ...       0.00
freq.    3167.48  E(vib)   ...       0.00
freq.    3198.64  E(vib)   ...       0.00

------------
INNER ENERGY
------------

The inner energy is: U= E(el) + E(ZPE) + E(vib) + E(rot) + E(trans)
    E(el)   - is the total energy from the electronic structure calculation
              = E(kin-el) + E(nuc-el) + E(el-el) + E(nuc-nuc)
    E(ZPE)  - the the zero temperature vibrational energy from the frequency calculation
    E(vib)  - the the finite temperature correction to E(ZPE) due to population
              of excited vibrational states
    E(rot)  - is the rotational thermal energy
    E(trans)- is the translational thermal energy

Summary of contributions to the inner energy U:
Electronic energy                ...   -306.76179940 Eh
Zero point energy                ...      0.09137467 Eh      57.34 kcal/mol
Thermal vibrational correction   ...      0.00235562 Eh       1.48 kcal/mol
Thermal rotational correction    ...      0.00141627 Eh       0.89 kcal/mol
Thermal translational correction ...      0.00141627 Eh       0.89 kcal/mol
-----------------------------------------------------------------------
Total thermal energy                   -306.66523658 Eh

Summary of corrections to the electronic energy:
(perhaps to be used in another calculation)
Total thermal correction                  0.00518816 Eh       3.26 kcal/mol
Non-thermal (ZPE) correction              0.09137467 Eh      57.34 kcal/mol
-----------------------------------------------------------------------
Total correction                          0.09656283 Eh      60.59 kcal/mol

--------
ENTHALPY
--------

The enthalpy is H = U + kB*T
                kB is Boltzmann's constant
Total free energy                 ...   -306.66523658 Eh
Thermal Enthalpy correction       ...      0.00094421 Eh       0.59 kcal/mol
-----------------------------------------------------------------------
Total Enthalpy                    ...   -306.66429237 Eh

Note: Rotational entropy computed according to Herzberg
Infrared and Raman Spectra, Chapter V,1, Van Nostrand Reinhold, 1945
Point Group:  Cs, Symmetry Number:   1
Rotational constants in cm-1:     0.192521     0.090409     0.061519

Vibrational entropy computed according to the QRRHO of S. Grimme
Chem.Eur.J. 2012 18 9955

-------
ENTROPY
-------

The entropy contributions are T*S = T*(S(el)+S(vib)+S(rot)+S(trans))
     S(el)   - electronic entropy
     S(vib)  - vibrational entropy
     S(rot)  - rotational entropy
     S(trans)- translational entropy
The entropies will be listed as multiplied by the temperature to get
units of energy

Electronic entropy                ...      0.00000000 Eh      0.00 kcal/mol
Vibrational entropy               ...      0.00342736 Eh      2.15 kcal/mol
Rotational entropy                ...      0.01273961 Eh      7.99 kcal/mol
Translational entropy             ...      0.01877006 Eh     11.78 kcal/mol
-----------------------------------------------------------------------
Final entropy term                ...      0.03493703 Eh     21.92 kcal/mol

In case the symmetry of your molecule has not been determined correctly
or in case you have a reason to use a different symmetry number we print
out the resulting rotational entropy values for sn=1,12 :
 --------------------------------------------------------
|  sn= 1 | S(rot)=       0.01273961 Eh      7.99 kcal/mol|
|  sn= 2 | S(rot)=       0.01208515 Eh      7.58 kcal/mol|
|  sn= 3 | S(rot)=       0.01170232 Eh      7.34 kcal/mol|
|  sn= 4 | S(rot)=       0.01143070 Eh      7.17 kcal/mol|
|  sn= 5 | S(rot)=       0.01122001 Eh      7.04 kcal/mol|
|  sn= 6 | S(rot)=       0.01104786 Eh      6.93 kcal/mol|
|  sn= 7 | S(rot)=       0.01090232 Eh      6.84 kcal/mol|
|  sn= 8 | S(rot)=       0.01077624 Eh      6.76 kcal/mol|
|  sn= 9 | S(rot)=       0.01066503 Eh      6.69 kcal/mol|
|  sn=10 | S(rot)=       0.01056555 Eh      6.63 kcal/mol|
|  sn=11 | S(rot)=       0.01047556 Eh      6.57 kcal/mol|
|  sn=12 | S(rot)=       0.01039341 Eh      6.52 kcal/mol|
 --------------------------------------------------------

-------------------
GIBBS FREE ENERGY
-------------------

The Gibbs free energy is G = H - T*S

Total enthalpy                    ...   -306.66429237 Eh
Total entropy correction          ...     -0.03493703 Eh    -21.92 kcal/mol
-----------------------------------------------------------------------
Final Gibbs free energy         ...   -306.69922940 Eh

For completeness - the Gibbs free energy minus the electronic energy
G-E(el)                           ...      0.06257000 Eh     39.26 kcal/mol

                             ****ORCA TERMINATED NORMALLY****
TOTAL RUN TIME: 0 days 0 hours 2 minutes 28 seconds 139 msec
