                         Program Version 5.0.4 -  RELEASE  -
|  1> %pal nprocs 24 end
|  2> %maxcore 3500
|  3> ! PBE0 D3BJ def2-TZVP TightSCF OPT FREQ TightOpt
|  4> ! CPCM(dmso)
|  5> %scf
|  6> MaxIter 800
|  7> end
|  8> %geom
|  9> MaxIter 800
| 10> MaxStep 0.2
| 11> end
| 12> *xyz 0 1
| 13>
| 14> C       0.00000000     -0.54654500     -1.55621700
| 15> C      -0.00000000      0.67831700     -0.90260300
| 16> C      -0.00000000     -1.71616700     -0.80602300
| 17> H       0.00000000      1.60013000     -1.47382300
| 18> H       0.00000000     -2.67978600     -1.30359500
| 19> C       0.00000100      0.73924000      0.48332900
| 20> C       0.00000000     -1.66938900      0.57952100
| 21> H       0.00000000      1.69662400      0.99545900
| 22> H      -0.00000000     -2.57909000      1.16923100
| 23> C       0.00000000     -0.43734500      1.22619500
| 24> H      -0.00000000     -0.58940900     -2.63893800
| 25> O       0.00000000     -0.43589400      2.58213000
| 26> H      -0.00000100      0.47281700      2.90477400
| 27> *
| 28>
| 29>                          ****END OF INPUT****
 Total Charge           Charge          ....    0
 Multiplicity           Mult            ....    1
 Number of Electrons    NEL             ....   50
Dispersion correction           -0.010463933
FINAL SINGLE POINT ENERGY      -307.248411343861
Dispersion correction            ... done
Dispersion correction           -0.010463939
FINAL SINGLE POINT ENERGY      -307.248411634508
Dispersion correction            ... done
Dispersion correction           -0.010463957
FINAL SINGLE POINT ENERGY      -307.248411826193
Dispersion correction            ... done
                    ***********************HURRAY********************

CARTESIAN COORDINATES (ANGSTROEM)
---------------------------------
  C      0.000000   -0.546483   -1.556429
  C     -0.000000    0.678242   -0.902603
  C     -0.000000   -1.716379   -0.806156
  H      0.000000    1.600411   -1.473120
  H      0.000000   -2.679836   -1.303868
  C      0.000001    0.739128    0.483565
  C      0.000000   -1.669501    0.579321
  H      0.000000    1.696683    0.995231
  H     -0.000000   -2.578524    1.169987
  C      0.000000   -0.437513    1.226256
  H     -0.000000   -0.589479   -2.639053
  O     -0.000000   -0.436131    2.582320
  H     -0.000001    0.472885    2.903989

 Multiplicity           Mult            ....    1
 Number of Electrons    NEL             ....   50
 Basis Dimension        Dim             ....  253

ORBITAL ENERGIES
----------------

  NO   OCC          E(Eh)            E(eV)
   0   2.0000     -19.237576      -523.4811
   1   2.0000     -10.288691      -279.9695
   2   2.0000     -10.228913      -278.3429
   3   2.0000     -10.228424      -278.3296
   4   2.0000     -10.224491      -278.2226
   5   2.0000     -10.222434      -278.1666
   6   2.0000     -10.219411      -278.0843
   7   2.0000      -1.095707       -29.8157
   8   2.0000      -0.881784       -23.9945
   9   2.0000      -0.775351       -21.0984
  10   2.0000      -0.763645       -20.7798
  11   2.0000      -0.645889       -17.5755
  12   2.0000      -0.623519       -16.9668
  13   2.0000      -0.563568       -15.3355
  14   2.0000      -0.515466       -14.0265
  15   2.0000      -0.484585       -13.1862
  16   2.0000      -0.451819       -12.2946
  17   2.0000      -0.436027       -11.8649
  18   2.0000      -0.434982       -11.8365
  19   2.0000      -0.408446       -11.1144
  20   2.0000      -0.373257       -10.1568
  21   2.0000      -0.360072        -9.7980
  22   2.0000      -0.350882        -9.5480
  23   2.0000      -0.272683        -7.4201
  24   2.0000      -0.241834        -6.5806
  25   0.0000      -0.010924        -0.2973
  26   0.0000       0.005889         0.1603
  27   0.0000       0.063057         1.7159
  28   0.0000       0.070745         1.9251
  29   0.0000       0.099486         2.7071

MULLIKEN ATOMIC CHARGES
-----------------------
   0 C :   -0.183638
   1 C :   -0.146548
   2 C :   -0.131409
   3 H :    0.153286
   4 H :    0.150210
   5 C :   -0.248256
   6 C :   -0.248812
   7 H :    0.157063
   8 H :    0.143987
   9 C :    0.272237
  10 H :    0.149036
  11 O :   -0.434502
  12 H :    0.367347
Sum of atomic charges:   -0.0000000

LOEWDIN ATOMIC CHARGES
----------------------
   0 C :   -0.174631
   1 C :   -0.150354
   2 C :   -0.149854
   3 H :    0.153855
   4 H :    0.153739
   5 C :   -0.146936
   6 C :   -0.137979
   7 H :    0.156650
   8 H :    0.155038
   9 C :   -0.294060
  10 H :    0.150328
  11 O :    0.076965
  12 H :    0.207240

  Mayer bond orders larger than 0.100000
B(  0-C ,  1-C ) :   1.4085 B(  0-C ,  2-C ) :   1.4031 B(  0-C , 10-H ) :   0.9679
B(  1-C ,  3-H ) :   0.9568 B(  1-C ,  5-C ) :   1.3893 B(  2-C ,  4-H ) :   0.9685
B(  2-C ,  6-C ) :   1.4395 B(  5-C ,  7-H ) :   0.9608 B(  5-C ,  9-C ) :   1.3654
B(  6-C ,  8-H ) :   0.9756 B(  6-C ,  9-C ) :   1.3792 B(  9-C , 11-O ) :   1.1230
B( 11-O , 12-H ) :   0.8520

Dispersion correction           -0.010463982
FINAL SINGLE POINT ENERGY      -307.248411849805

DIPOLE MOMENT
-------------
                                X             Y             Z
Electronic contribution:      0.00000       0.01405       2.08778
Nuclear contribution   :     -0.00000       0.71485      -2.04079
                        -----------------------------------------
Total Dipole Moment    :     -0.00000       0.72889       0.04699
                        -----------------------------------------
Magnitude (a.u.)       :      0.73041
Magnitude (Debye)      :      1.85655

Dispersion correction in the Hessian             ... done   (      0.3 sec)

VIBRATIONAL FREQUENCIES
-----------------------

Scaling factor for frequencies =  1.000000000  (already applied!)

   0:         0.00 cm**-1
   1:         0.00 cm**-1
   2:         0.00 cm**-1
   3:         0.00 cm**-1
   4:         0.00 cm**-1
   5:         0.00 cm**-1
   6:       231.01 cm**-1
   7:       369.79 cm**-1
   8:       414.64 cm**-1
   9:       422.17 cm**-1
  10:       520.74 cm**-1
  11:       536.82 cm**-1
  12:       628.56 cm**-1
  13:       707.03 cm**-1
  14:       770.63 cm**-1
  15:       835.66 cm**-1
  16:       838.29 cm**-1
  17:       905.27 cm**-1
  18:       974.47 cm**-1
  19:       987.10 cm**-1
  20:      1017.91 cm**-1
  21:      1052.35 cm**-1
  22:      1098.85 cm**-1
  23:      1164.13 cm**-1
  24:      1183.77 cm**-1
  25:      1199.70 cm**-1
  26:      1299.26 cm**-1
  27:      1364.13 cm**-1
  28:      1380.89 cm**-1
  29:      1506.55 cm**-1
  30:      1536.51 cm**-1
  31:      1656.38 cm**-1
  32:      1666.84 cm**-1
  33:      3182.36 cm**-1
  34:      3190.10 cm**-1
  35:      3198.53 cm**-1
  36:      3206.56 cm**-1
  37:      3215.49 cm**-1
  38:      3820.77 cm**-1

IR SPECTRUM
-----------

 Mode   freq       eps      Int      T**2         TX        TY        TZ
       cm**-1   L/(mol*cm) km/mol    a.u.
----------------------------------------------------------------------------
  6:    231.01   0.000174    0.88  0.000235  ( 0.015330 -0.000000 -0.000003)
  7:    369.79   0.035562  179.71  0.030010  ( 0.173234  0.000000  0.000000)
  8:    414.64   0.002844   14.37  0.002141  ( 0.000000 -0.000880 -0.046257)
  9:    422.17   0.000001    0.00  0.000000  ( 0.000637 -0.000005  0.000000)
 10:    520.74   0.004966   25.10  0.002976  ( 0.054554  0.000001 -0.000004)
 11:    536.82   0.000557    2.82  0.000324  (-0.000000  0.001542 -0.017935)
 12:    628.56   0.000186    0.94  0.000092  ( 0.000000  0.008500 -0.004465)
 13:    707.03   0.009879   49.92  0.004360  ( 0.066033 -0.000003  0.000001)
 14:    770.63   0.019505   98.57  0.007899  ( 0.088874  0.000002 -0.000004)
 15:    835.66   0.000021    0.11  0.000008  ( 0.002789 -0.000002 -0.000001)
 16:    838.29   0.008054   40.70  0.002998  (-0.000000 -0.002196 -0.054711)
 17:    905.27   0.002498   12.63  0.000861  (-0.029347 -0.000001 -0.000002)
 18:    974.47   0.000002    0.01  0.000001  ( 0.000862 -0.000002  0.000001)
 19:    987.10   0.000018    0.09  0.000006  (-0.002386 -0.000001  0.000005)
 20:   1017.91   0.000434    2.20  0.000133  ( 0.000000 -0.001119  0.011485)
 21:   1052.35   0.003209   16.22  0.000951  (-0.000000  0.003962  0.030591)
 22:   1098.85   0.004386   22.16  0.001246  (-0.000000 -0.032308 -0.014203)
 23:   1164.13   0.001734    8.77  0.000465  (-0.000000  0.010320 -0.018933)
 24:   1183.77   0.003059   15.46  0.000806  (-0.000000  0.006227  0.027705)
 25:   1199.70   0.047955  242.34  0.012474  (-0.000000 -0.007695  0.111421)
 26:   1299.26   0.030129  152.26  0.007237  ( 0.000000 -0.008459 -0.084647)
 27:   1364.13   0.002996   15.14  0.000685  (-0.000000  0.015530 -0.021078)
 28:   1380.89   0.006774   34.24  0.001531  (-0.000000 -0.011770 -0.037315)
 29:   1506.55   0.010399   52.55  0.002154  (-0.000000  0.009589  0.045409)
 30:   1536.51   0.022447  113.44  0.004559  ( 0.000000 -0.000370  0.067519)
 31:   1656.38   0.019429   98.18  0.003660  (-0.000000 -0.015915  0.058370)
 32:   1666.84   0.012458   62.96  0.002332  (-0.000000  0.021118  0.043432)
 33:   3182.36   0.001695    8.57  0.000166  (-0.000000 -0.001206 -0.012836)
 34:   3190.10   0.000147    0.74  0.000014  ( 0.000000 -0.003675 -0.000926)
 35:   3198.53   0.002478   12.52  0.000242  (-0.000000 -0.012189 -0.009654)
 36:   3206.56   0.003177   16.06  0.000309  ( 0.000000 -0.013894  0.010777)
 37:   3215.49   0.001405    7.10  0.000136  ( 0.000000 -0.002789 -0.011341)
 38:   3820.77   0.034796  175.85  0.002842  ( 0.000000 -0.037307 -0.038082)

--------------------------
THERMOCHEMISTRY AT 298.15K
--------------------------

Temperature         ... 298.15 K
Pressure            ... 1.00 atm
Total Mass          ... 94.11 AMU

Throughout the following assumptions are being made:
  (1) The electronic state is orbitally nondegenerate
  (2) There are no thermally accessible electronically excited states
  (3) Hindered rotations indicated by low frequency modes are not
      treated as such but are treated as vibrations and this may
      cause some error
  (4) All equations used are the standard statistical mechanics
      equations for an ideal gas
  (5) All vibrations are strictly harmonic

freq.     231.01  E(vib)   ...       0.32
freq.     369.79  E(vib)   ...       0.21
freq.     414.64  E(vib)   ...       0.19
freq.     422.17  E(vib)   ...       0.18
freq.     520.74  E(vib)   ...       0.13
freq.     536.82  E(vib)   ...       0.12
freq.     628.56  E(vib)   ...       0.09
freq.     707.03  E(vib)   ...       0.07
freq.     770.63  E(vib)   ...       0.05
freq.     835.66  E(vib)   ...       0.04
freq.     838.29  E(vib)   ...       0.04
freq.     905.27  E(vib)   ...       0.03
freq.     974.47  E(vib)   ...       0.03
freq.     987.10  E(vib)   ...       0.02
freq.    1017.91  E(vib)   ...       0.02
freq.    1052.35  E(vib)   ...       0.02
freq.    1098.85  E(vib)   ...       0.02
freq.    1164.13  E(vib)   ...       0.01
freq.    1183.77  E(vib)   ...       0.01
freq.    1199.70  E(vib)   ...       0.01
freq.    1299.26  E(vib)   ...       0.01
freq.    1364.13  E(vib)   ...       0.01
freq.    1380.89  E(vib)   ...       0.01
freq.    1506.55  E(vib)   ...       0.00
freq.    1536.51  E(vib)   ...       0.00
freq.    1656.38  E(vib)   ...       0.00
freq.    1666.84  E(vib)   ...       0.00
freq.    3182.36  E(vib)   ...       0.00
freq.    3190.10  E(vib)   ...       0.00
freq.    3198.53  E(vib)   ...       0.00
freq.    3206.56  E(vib)   ...       0.00
freq.    3215.49  E(vib)   ...       0.00
freq.    3820.77  E(vib)   ...       0.00

------------
INNER ENERGY
------------

The inner energy is: U= E(el) + E(ZPE) + E(vib) + E(rot) + E(trans)
    E(el)   - is the total energy from the electronic structure calculation
              = E(kin-el) + E(nuc-el) + E(el-el) + E(nuc-nuc)
    E(ZPE)  - the the zero temperature vibrational energy from the frequency calculation
    E(vib)  - the the finite temperature correction to E(ZPE) due to population
              of excited vibrational states
    E(rot)  - is the rotational thermal energy
    E(trans)- is the translational thermal energy

Summary of contributions to the inner energy U:
Electronic energy                ...   -307.24841185 Eh
Zero point energy                ...      0.10498536 Eh      65.88 kcal/mol
Thermal vibrational correction   ...      0.00264162 Eh       1.66 kcal/mol
Thermal rotational correction    ...      0.00141627 Eh       0.89 kcal/mol
Thermal translational correction ...      0.00141627 Eh       0.89 kcal/mol
-----------------------------------------------------------------------
Total thermal energy                   -307.13795232 Eh

Summary of corrections to the electronic energy:
(perhaps to be used in another calculation)
Total thermal correction                  0.00547417 Eh       3.44 kcal/mol
Non-thermal (ZPE) correction              0.10498536 Eh      65.88 kcal/mol
-----------------------------------------------------------------------
Total correction                          0.11045953 Eh      69.31 kcal/mol

--------
ENTHALPY
--------

The enthalpy is H = U + kB*T
                kB is Boltzmann's constant
Total free energy                 ...   -307.13795232 Eh
Thermal Enthalpy correction       ...      0.00094421 Eh       0.59 kcal/mol
-----------------------------------------------------------------------
Total Enthalpy                    ...   -307.13700811 Eh

Note: Rotational entropy computed according to Herzberg
Infrared and Raman Spectra, Chapter V,1, Van Nostrand Reinhold, 1945
Point Group:  Cs, Symmetry Number:   1
Rotational constants in cm-1:     0.190216     0.088181     0.060250

Vibrational entropy computed according to the QRRHO of S. Grimme
Chem.Eur.J. 2012 18 9955

-------
ENTROPY
-------

The entropy contributions are T*S = T*(S(el)+S(vib)+S(rot)+S(trans))
     S(el)   - electronic entropy
     S(vib)  - vibrational entropy
     S(rot)  - rotational entropy
     S(trans)- translational entropy
The entropies will be listed as multiplied by the temperature to get
units of energy

Electronic entropy                ...      0.00000000 Eh      0.00 kcal/mol
Vibrational entropy               ...      0.00381654 Eh      2.39 kcal/mol
Rotational entropy                ...      0.01276691 Eh      8.01 kcal/mol
Translational entropy             ...      0.01878531 Eh     11.79 kcal/mol
-----------------------------------------------------------------------
Final entropy term                ...      0.03536877 Eh     22.19 kcal/mol

In case the symmetry of your molecule has not been determined correctly
or in case you have a reason to use a different symmetry number we print
out the resulting rotational entropy values for sn=1,12 :
 --------------------------------------------------------
|  sn= 1 | S(rot)=       0.01276691 Eh      8.01 kcal/mol|
|  sn= 2 | S(rot)=       0.01211246 Eh      7.60 kcal/mol|
|  sn= 3 | S(rot)=       0.01172963 Eh      7.36 kcal/mol|
|  sn= 4 | S(rot)=       0.01145800 Eh      7.19 kcal/mol|
|  sn= 5 | S(rot)=       0.01124731 Eh      7.06 kcal/mol|
|  sn= 6 | S(rot)=       0.01107517 Eh      6.95 kcal/mol|
|  sn= 7 | S(rot)=       0.01092962 Eh      6.86 kcal/mol|
|  sn= 8 | S(rot)=       0.01080355 Eh      6.78 kcal/mol|
|  sn= 9 | S(rot)=       0.01069234 Eh      6.71 kcal/mol|
|  sn=10 | S(rot)=       0.01059286 Eh      6.65 kcal/mol|
|  sn=11 | S(rot)=       0.01050287 Eh      6.59 kcal/mol|
|  sn=12 | S(rot)=       0.01042071 Eh      6.54 kcal/mol|
 --------------------------------------------------------

-------------------
GIBBS FREE ENERGY
-------------------

The Gibbs free energy is G = H - T*S

Total enthalpy                    ...   -307.13700811 Eh
Total entropy correction          ...     -0.03536877 Eh    -22.19 kcal/mol
-----------------------------------------------------------------------
Final Gibbs free energy         ...   -307.17237688 Eh

For completeness - the Gibbs free energy minus the electronic energy
G-E(el)                           ...      0.07603497 Eh     47.71 kcal/mol

                             ****ORCA TERMINATED NORMALLY****
TOTAL RUN TIME: 0 days 0 hours 2 minutes 52 seconds 362 msec
