                         Program Version 5.0.4 -  RELEASE  -
|  1> %pal nprocs 24 end
|  2> ! PBE0 D3BJ def2-TZVP TightSCF OPT FREQ TightOpt
|  3> ! CPCM(dmso)
|  4> %scf
|  5> MaxIter 800
|  6> end
|  7>
|  8> %geom
|  9> MaxIter 800
| 10> MaxStep 0.15
| 11> end
| 12>
| 13> *xyz 0 1
| 14> C      -1.70517200     -4.01919000      0.58038100
| 15> C      -0.72466900     -3.56645200      1.45991500
| 16> C       0.05768100     -2.48379300      1.10335800
| 17> N      -0.12353100     -1.87381700     -0.08578500
| 18> C      -1.07161700     -2.29171100     -0.94930400
| 19> C      -1.87828200     -3.36888100     -0.64040200
| 20> C       0.66152400     -0.68207500     -0.42312200
| 21> C       2.14408100     -1.01974400     -0.45742100
| 22> O       2.65793300     -1.94548300      0.11878700
| 23> O       2.76969400     -0.17575300     -1.25647500
| 24> C       4.19418100     -0.22665400     -1.25603100
| 25> H      -2.33527100     -4.87076600      0.84621100
| 26> H       0.83897700     -2.08459400      1.74719800
| 27> H      -1.15780000     -1.73033600     -1.88043900
| 28> H      -2.63678800     -3.68522900     -1.35728100
| 29> H       0.36631900     -0.37824200     -1.43233300
| 30> H       4.56081800      0.10997100     -0.27579400
| 31> H       4.52344300      0.45968300     -2.04332400
| 32> H      -0.56086900     -4.04205400      2.42756000
| 33> C       1.04269900      1.74465000      0.29001700
| 34> C       0.28677000      0.47958700      0.55654200
| 35> C      -1.21283900      0.66928900      0.61413900
| 36> C      -1.86334700      0.58914700      1.84633200
| 37> C      -3.24087200      0.77712700      1.96041100
| 38> C      -3.98540200      1.04809200      0.81596800
| 39> C      -3.36540400      1.12465100     -0.43135800
| 40> C      -1.98448600      0.93014400     -0.53824300
| 41> O      -1.31906000      0.95823200     -1.71262100
| 42> C      -1.98106100      1.40123800     -2.87547800
| 43> N       2.31661800      1.84817200      0.78083800
| 44> O       2.97982300      2.87924800      0.59622300
| 45> H       0.61534900      0.15374900      1.55506100
| 46> H      -1.26604700      0.37835400      2.73768900
| 47> H      -3.72486000      0.71198100      2.93710400
| 48> H      -5.06563100      1.19972900      0.88392400
| 49> H      -3.96299100      1.33251300     -1.31921500
| 50> H      -1.22926400      1.41095500     -3.67379300
| 51> H      -2.38005100      2.41916600     -2.73781800
| 52> H      -2.80084800      0.72131600     -3.15876700
| 53> O       2.79298800      0.87954700      1.41099000
| 54> H       4.54662700     -1.24640800     -1.46113000
| 55> C       0.54170200      2.85251700     -0.40598600
| 56> N       0.09805100      3.77063200     -0.97622700
| 57> *
| 58>
| 59>                          ****END OF INPUT****
 Total Charge           Charge          ....    0
 Multiplicity           Mult            ....    1
 Number of Electrons    NEL             ....  186
Dispersion correction           -0.057417164
FINAL SINGLE POINT ENERGY     -1235.536743022715
Dispersion correction            ... done
Dispersion correction           -0.057030149
FINAL SINGLE POINT ENERGY     -1235.537702868415
Dispersion correction            ... done
Dispersion correction           -0.057366642
FINAL SINGLE POINT ENERGY     -1235.537932546897
Dispersion correction            ... done
FINAL SINGLE POINT ENERGY     -1235.538956630451
FINAL SINGLE POINT ENERGY     -1235.538551816941
FINAL SINGLE POINT ENERGY     -1235.539255632119
FINAL SINGLE POINT ENERGY     -1235.539272787154
FINAL SINGLE POINT ENERGY     -1235.539288100303
FINAL SINGLE POINT ENERGY     -1235.539312156933
FINAL SINGLE POINT ENERGY     -1235.539317111657
Dispersion correction           -0.057186143
FINAL SINGLE POINT ENERGY     -1235.539319915767
Dispersion correction            ... done
Dispersion correction           -0.057187607
FINAL SINGLE POINT ENERGY     -1235.539321569927
Dispersion correction            ... done
                    ***********************HURRAY********************

CARTESIAN COORDINATES (ANGSTROEM)
---------------------------------
  C     -1.686107   -4.008728    0.459146
  C     -0.801643   -3.509106    1.402088
  C     -0.026618   -2.418067    1.087826
  N     -0.123589   -1.841572   -0.121889
  C     -0.975101   -2.310132   -1.049180
  C     -1.770526   -3.397597   -0.782671
  C      0.671818   -0.648469   -0.432233
  C      2.149465   -1.007508   -0.439833
  O      2.635405   -1.935846    0.152848
  O      2.801685   -0.180403   -1.233254
  C      4.227517   -0.318847   -1.252603
  H     -2.307759   -4.864805    0.690819
  H      0.674534   -1.983012    1.783058
  H     -0.993222   -1.783290   -1.992921
  H     -2.448151   -3.751836   -1.547283
  H      0.398068   -0.341258   -1.437189
  H      4.622751   -0.148751   -0.251332
  H      4.584723    0.443292   -1.939559
  H     -0.708161   -3.953636    2.383426
  C      1.054370    1.764322    0.306702
  C      0.298348    0.498400    0.556069
  C     -1.197757    0.703613    0.624204
  C     -1.815394    0.668836    1.867471
  C     -3.180549    0.872004    2.011252
  C     -3.948015    1.109876    0.883457
  C     -3.361562    1.142218   -0.374112
  C     -1.992088    0.937625   -0.509197
  O     -1.357010    0.939304   -1.701768
  C     -2.100012    1.251009   -2.865368
  N      2.291191    1.904449    0.849551
  O      2.927031    2.969959    0.708686
  H      0.618775    0.166886    1.546534
  H     -1.203251    0.479527    2.743142
  H     -3.635575    0.841185    2.993718
  H     -5.016539    1.270232    0.972093
  H     -3.975079    1.326274   -1.245552
  H     -1.390046    1.222456   -3.689098
  H     -2.537636    2.250280   -2.792617
  H     -2.890661    0.515807   -3.038284
  O      2.783018    0.945701    1.486003
  H      4.505168   -1.312520   -1.602940
  C      0.537011    2.869678   -0.367500
  N      0.080288    3.780958   -0.921408

 Multiplicity           Mult            ....    1
 Number of Electrons    NEL             ....  186
 Basis Dimension        Dim             ....  908

ORBITAL ENERGIES
----------------

  NO   OCC          E(Eh)            E(eV)
   0   2.0000     -19.271040      -524.3917
   1   2.0000     -19.249723      -523.8116
   2   2.0000     -19.212349      -522.7946
   3   2.0000     -19.197258      -522.3839
   4   2.0000     -19.193087      -522.2704
   5   2.0000     -14.583961      -396.8497
   6   2.0000     -14.516882      -395.0244
   7   2.0000     -14.369674      -391.0187
   8   2.0000     -10.372292      -282.2444
   9   2.0000     -10.315232      -280.6917
  10   2.0000     -10.314418      -280.6696
  11   2.0000     -10.306486      -280.4537
  12   2.0000     -10.295885      -280.1653
  13   2.0000     -10.281016      -279.7607
  14   2.0000     -10.273402      -279.5535
  15   2.0000     -10.272108      -279.5183
  16   2.0000     -10.270068      -279.4628
  17   2.0000     -10.269996      -279.4608
  18   2.0000     -10.268595      -279.4227
  19   2.0000     -10.265476      -279.3378
  20   2.0000     -10.260940      -279.2144
  21   2.0000     -10.245540      -278.7953
  22   2.0000     -10.233630      -278.4712
  23   2.0000     -10.232361      -278.4367
  24   2.0000     -10.228665      -278.3361
  25   2.0000     -10.223822      -278.2043
  26   2.0000      -1.219493       -33.1841
  27   2.0000      -1.163092       -31.6494
  28   2.0000      -1.113328       -30.2952
  29   2.0000      -1.087813       -29.6009
  30   2.0000      -1.068331       -29.0708
  31   2.0000      -1.035615       -28.1805
  32   2.0000      -0.931575       -25.3494
  33   2.0000      -0.910157       -24.7666
  34   2.0000      -0.893045       -24.3010
  35   2.0000      -0.869046       -23.6479
  36   2.0000      -0.847967       -23.0743
  37   2.0000      -0.824253       -22.4291
  38   2.0000      -0.799536       -21.7565
  39   2.0000      -0.782497       -21.2928
  40   2.0000      -0.756241       -20.5784
  41   2.0000      -0.732313       -19.9273
  42   2.0000      -0.717899       -19.5350
  43   2.0000      -0.711019       -19.3478
  44   2.0000      -0.682716       -18.5777
  45   2.0000      -0.652839       -17.7647
  46   2.0000      -0.632869       -17.2212
  47   2.0000      -0.621458       -16.9107
  48   2.0000      -0.613319       -16.6892
  49   2.0000      -0.580835       -15.8053
  50   2.0000      -0.569856       -15.5066
  51   2.0000      -0.561533       -15.2801
  52   2.0000      -0.557492       -15.1701
  53   2.0000      -0.550950       -14.9921
  54   2.0000      -0.543524       -14.7900
  55   2.0000      -0.533269       -14.5110
  56   2.0000      -0.525039       -14.2870
  57   2.0000      -0.513576       -13.9751
  58   2.0000      -0.509418       -13.8620
  59   2.0000      -0.503384       -13.6978
  60   2.0000      -0.499105       -13.5813
  61   2.0000      -0.496731       -13.5167
  62   2.0000      -0.493164       -13.4197
  63   2.0000      -0.488158       -13.2835
  64   2.0000      -0.478157       -13.0113
  65   2.0000      -0.464498       -12.6396
  66   2.0000      -0.458097       -12.4655
  67   2.0000      -0.452936       -12.3250
  68   2.0000      -0.438882       -11.9426
  69   2.0000      -0.429933       -11.6991
  70   2.0000      -0.419666       -11.4197
  71   2.0000      -0.419045       -11.4028
  72   2.0000      -0.414447       -11.2777
  73   2.0000      -0.403110       -10.9692
  74   2.0000      -0.397732       -10.8228
  75   2.0000      -0.387443       -10.5429
  76   2.0000      -0.385714       -10.4958
  77   2.0000      -0.383570       -10.4375
  78   2.0000      -0.374582       -10.1929
  79   2.0000      -0.370832       -10.0908
  80   2.0000      -0.357343        -9.7238
  81   2.0000      -0.351583        -9.5671
  82   2.0000      -0.348460        -9.4821
  83   2.0000      -0.340054        -9.2533
  84   2.0000      -0.336523        -9.1573
  85   2.0000      -0.325399        -8.8546
  86   2.0000      -0.313408        -8.5283
  87   2.0000      -0.310997        -8.4626
  88   2.0000      -0.300965        -8.1897
  89   2.0000      -0.278817        -7.5870
  90   2.0000      -0.274012        -7.4562
  91   2.0000      -0.245413        -6.6780
  92   2.0000      -0.224807        -6.1173
  93   0.0000      -0.088152        -2.3987
  94   0.0000      -0.051842        -1.4107
  95   0.0000      -0.033290        -0.9059
  96   0.0000      -0.019289        -0.5249
  97   0.0000      -0.003852        -0.1048

MULLIKEN ATOMIC CHARGES
-----------------------
   0 C :   -0.070279
   1 C :   -0.139922
   2 C :   -0.019680
   3 N :    0.181310
   4 C :   -0.022399
   5 C :   -0.133872
   6 C :   -0.065996
   7 C :    0.299513
   8 O :   -0.373879
   9 O :   -0.208807
  10 C :   -0.259404
  11 H :    0.190934
  12 H :    0.204850
  13 H :    0.210958
  14 H :    0.193630
  15 H :    0.169873
  16 H :    0.152353
  17 H :    0.165401
  18 H :    0.192850
  19 C :   -0.140792
  20 C :    0.091931
  21 C :    0.114410
  22 C :   -0.229244
  23 C :   -0.194482
  24 C :   -0.143162
  25 C :   -0.309996
  26 C :    0.228695
  27 O :   -0.263479
  28 C :   -0.290673
  29 N :    0.456002
  30 O :   -0.491860
  31 H :    0.140863
  32 H :    0.148249
  33 H :    0.148214
  34 H :    0.152951
  35 H :    0.167719
  36 H :    0.164293
  37 H :    0.157570
  38 H :    0.155663
  39 O :   -0.496537
  40 H :    0.158196
  41 C :   -0.250965
  42 N :   -0.141000
Sum of atomic charges:   -0.0000000

LOEWDIN ATOMIC CHARGES
----------------------
   0 C :   -0.049707
   1 C :   -0.093486
   2 C :   -0.074924
   3 N :    0.342163
   4 C :   -0.072029
   5 C :   -0.093937
   6 C :   -0.147780
   7 C :   -0.486663
   8 O :    0.103203
   9 O :    0.285225
  10 C :   -0.297884
  11 H :    0.173113
  12 H :    0.177048
  13 H :    0.177293
  14 H :    0.175263
  15 H :    0.186599
  16 H :    0.117788
  17 H :    0.124100
  18 H :    0.175171
  19 C :   -0.254677
  20 C :   -0.161944
  21 C :   -0.104610
  22 C :   -0.105802
  23 C :   -0.161663
  24 C :   -0.140696
  25 C :   -0.134900
  26 C :   -0.236693
  27 O :    0.257718
  28 C :   -0.325909
  29 N :   -0.043572
  30 O :   -0.183277
  31 H :    0.188413
  32 H :    0.162339
  33 H :    0.153195
  34 H :    0.155670
  35 H :    0.161867
  36 H :    0.123370
  37 H :    0.120023
  38 H :    0.118773
  39 O :   -0.162362
  40 H :    0.120600
  41 C :   -0.222782
  42 N :   -0.043641

  Mayer bond orders larger than 0.100000
B(  0-C ,  1-C ) :   1.4050 B(  0-C ,  5-C ) :   1.4024 B(  0-C , 11-H ) :   0.9406
B(  1-C ,  2-C ) :   1.4439 B(  1-C , 18-H ) :   0.9439 B(  2-C ,  3-N ) :   1.2595
B(  2-C , 12-H ) :   0.9331 B(  3-N ,  4-C ) :   1.2812 B(  3-N ,  6-C ) :   0.8542
B(  4-C ,  5-C ) :   1.4487 B(  4-C , 13-H ) :   0.9272 B(  5-C , 14-H ) :   0.9434
B(  6-C ,  7-C ) :   0.9674 B(  6-C , 15-H ) :   0.9256 B(  6-C , 20-C ) :   0.9103
B(  7-C ,  8-O ) :   1.9706 B(  7-C ,  9-O ) :   1.2782 B(  9-O , 10-C ) :   0.8797
B( 10-C , 16-H ) :   0.9647 B( 10-C , 17-H ) :   0.9639 B( 10-C , 40-H ) :   0.9623
B( 19-C , 20-C ) :   1.0351 B( 19-C , 29-N ) :   1.3248 B( 19-C , 41-C ) :   1.1898
B( 20-C , 21-C ) :   0.8442 B( 20-C , 31-H ) :   0.9275 B( 21-C , 22-C ) :   1.3856
B( 21-C , 26-C ) :   1.3078 B( 22-C , 23-C ) :   1.4019 B( 22-C , 32-H ) :   0.9773
B( 23-C , 24-C ) :   1.3975 B( 23-C , 33-H ) :   0.9817 B( 24-C , 25-C ) :   1.4022
B( 24-C , 34-H ) :   0.9688 B( 25-C , 26-C ) :   1.3662 B( 25-C , 35-H ) :   0.9569
B( 26-C , 27-O ) :   1.0557 B( 27-O , 28-C ) :   0.9297 B( 28-C , 36-H ) :   0.9646
B( 28-C , 37-H ) :   0.9610 B( 28-C , 38-H ) :   0.9608 B( 29-N , 30-O ) :   1.4646
B( 29-N , 39-O ) :   1.3843 B( 41-C , 42-N ) :   3.0291

Dispersion correction           -0.057187330
FINAL SINGLE POINT ENERGY     -1235.539321732424

DIPOLE MOMENT
-------------
                                X             Y             Z
Electronic contribution:      5.97776       1.55835       4.22522
Nuclear contribution   :    -11.23523      -9.79180      -5.80775
                        -----------------------------------------
Total Dipole Moment    :     -5.25746      -8.23345      -1.58253
                        -----------------------------------------
Magnitude (a.u.)       :      9.89621
Magnitude (Debye)      :     25.15417

Dispersion correction in the Hessian             ... done   (      0.8 sec)

VIBRATIONAL FREQUENCIES
-----------------------

Scaling factor for frequencies =  1.000000000  (already applied!)

   0:         0.00 cm**-1
   1:         0.00 cm**-1
   2:         0.00 cm**-1
   3:         0.00 cm**-1
   4:         0.00 cm**-1
   5:         0.00 cm**-1
   6:        10.74 cm**-1
   7:        35.47 cm**-1
   8:        43.26 cm**-1
   9:        46.51 cm**-1
  10:        61.50 cm**-1
  11:        75.71 cm**-1
  12:        85.03 cm**-1
  13:        90.91 cm**-1
  14:       102.46 cm**-1
  15:       108.36 cm**-1
  16:       121.31 cm**-1
  17:       149.85 cm**-1
  18:       152.36 cm**-1
  19:       163.90 cm**-1
  20:       172.22 cm**-1
  21:       185.95 cm**-1
  22:       200.91 cm**-1
  23:       229.78 cm**-1
  24:       246.89 cm**-1
  25:       268.88 cm**-1
  26:       278.65 cm**-1
  27:       287.15 cm**-1
  28:       296.55 cm**-1
  29:       316.29 cm**-1
  30:       331.38 cm**-1
  31:       367.22 cm**-1
  32:       409.82 cm**-1
  33:       439.31 cm**-1
  34:       469.84 cm**-1
  35:       501.22 cm**-1
  36:       502.19 cm**-1
  37:       531.23 cm**-1
  38:       562.04 cm**-1
  39:       568.70 cm**-1
  40:       578.10 cm**-1
  41:       581.75 cm**-1
  42:       623.15 cm**-1
  43:       637.76 cm**-1
  44:       657.27 cm**-1
  45:       695.84 cm**-1
  46:       722.54 cm**-1
  47:       735.39 cm**-1
  48:       756.81 cm**-1
  49:       770.54 cm**-1
  50:       786.25 cm**-1
  51:       793.77 cm**-1
  52:       802.78 cm**-1
  53:       803.16 cm**-1
  54:       844.56 cm**-1
  55:       874.31 cm**-1
  56:       876.31 cm**-1
  57:       885.99 cm**-1
  58:       914.50 cm**-1
  59:       961.19 cm**-1
  60:       967.35 cm**-1
  61:       983.52 cm**-1
  62:       993.58 cm**-1
  63:      1012.14 cm**-1
  64:      1027.32 cm**-1
  65:      1051.52 cm**-1
  66:      1056.98 cm**-1
  67:      1064.40 cm**-1
  68:      1071.96 cm**-1
  69:      1085.90 cm**-1
  70:      1087.82 cm**-1
  71:      1134.14 cm**-1
  72:      1145.47 cm**-1
  73:      1169.01 cm**-1
  74:      1170.19 cm**-1
  75:      1171.01 cm**-1
  76:      1175.93 cm**-1
  77:      1177.23 cm**-1
  78:      1203.93 cm**-1
  79:      1207.59 cm**-1
  80:      1214.33 cm**-1
  81:      1224.13 cm**-1
  82:      1229.11 cm**-1
  83:      1238.20 cm**-1
  84:      1270.19 cm**-1
  85:      1290.15 cm**-1
  86:      1307.93 cm**-1
  87:      1332.09 cm**-1
  88:      1345.49 cm**-1
  89:      1354.75 cm**-1
  90:      1368.15 cm**-1
  91:      1379.01 cm**-1
  92:      1384.93 cm**-1
  93:      1417.67 cm**-1
  94:      1429.82 cm**-1
  95:      1443.65 cm**-1
  96:      1465.37 cm**-1
  97:      1465.90 cm**-1
  98:      1467.61 cm**-1
  99:      1472.49 cm**-1
 100:      1474.83 cm**-1
 101:      1483.14 cm**-1
 102:      1497.97 cm**-1
 103:      1530.05 cm**-1
 104:      1538.51 cm**-1
 105:      1541.21 cm**-1
 106:      1646.73 cm**-1
 107:      1647.40 cm**-1
 108:      1664.27 cm**-1
 109:      1697.45 cm**-1
 110:      1798.63 cm**-1
 111:      2288.56 cm**-1
 112:      3040.81 cm**-1
 113:      3076.12 cm**-1
 114:      3093.28 cm**-1
 115:      3113.94 cm**-1
 116:      3163.99 cm**-1
 117:      3168.90 cm**-1
 118:      3179.55 cm**-1
 119:      3187.93 cm**-1
 120:      3194.63 cm**-1
 121:      3197.86 cm**-1
 122:      3216.11 cm**-1
 123:      3223.33 cm**-1
 124:      3233.45 cm**-1
 125:      3241.96 cm**-1
 126:      3244.39 cm**-1
 127:      3260.47 cm**-1
 128:      3272.44 cm**-1

IR SPECTRUM
-----------

 Mode   freq       eps      Int      T**2         TX        TY        TZ
       cm**-1   L/(mol*cm) km/mol    a.u.
----------------------------------------------------------------------------
  6:     10.74   0.000121    0.61  0.003514  (-0.013477  0.052685  0.023599)
  7:     35.47   0.000049    0.25  0.000431  (-0.009708 -0.010672  0.014927)
  8:     43.26   0.000795    4.02  0.005733  (-0.055483  0.041328  0.030769)
  9:     46.51   0.000552    2.79  0.003705  ( 0.017737  0.017298  0.055595)
 10:     61.50   0.000779    3.94  0.003955  ( 0.058364  0.023419 -0.000831)
 11:     75.71   0.000653    3.30  0.002691  (-0.030477  0.010089  0.040750)
 12:     85.03   0.001748    8.83  0.006414  (-0.017522  0.064137  0.044648)
 13:     90.91   0.000565    2.85  0.001939  ( 0.037216 -0.019468  0.013215)
 14:    102.46   0.000415    2.10  0.001263  (-0.004742  0.026654 -0.023021)
 15:    108.36   0.001568    7.92  0.004516  ( 0.013844  0.065358  0.007251)
 16:    121.31   0.001053    5.32  0.002710  (-0.035669 -0.037880 -0.001598)
 17:    149.85   0.000421    2.13  0.000876  (-0.019345 -0.022315  0.001959)
 18:    152.36   0.003898   19.70  0.007984  ( 0.005024  0.069905  0.055423)
 19:    163.90   0.001330    6.72  0.002533  ( 0.029996  0.038171 -0.013261)
 20:    172.22   0.001163    5.88  0.002108  ( 0.031018  0.011889 -0.031691)
 21:    185.95   0.000900    4.55  0.001511  (-0.012031  0.036309  0.006933)
 22:    200.91   0.001377    6.96  0.002139  (-0.027006 -0.035443  0.012392)
 23:    229.78   0.002175   10.99  0.002954  (-0.008585 -0.041895 -0.033535)
 24:    246.89   0.000476    2.40  0.000601  (-0.002475  0.023618 -0.006114)
 25:    268.88   0.001712    8.65  0.001987  ( 0.022282  0.020311 -0.032826)
 26:    278.65   0.002831   14.31  0.003170  ( 0.033639  0.015226 -0.042508)
 27:    287.15   0.001353    6.84  0.001470  ( 0.020623  0.030635  0.010328)
 28:    296.55   0.000103    0.52  0.000108  ( 0.009942 -0.000947 -0.002887)
 29:    316.29   0.000160    0.81  0.000158  (-0.004706 -0.006862 -0.009429)
 30:    331.38   0.000086    0.43  0.000081  (-0.001942  0.001271  0.008698)
 31:    367.22   0.004196   21.20  0.003566  ( 0.055043  0.015765 -0.016948)
 32:    409.82   0.000206    1.04  0.000157  (-0.011040 -0.005786  0.001229)
 33:    439.31   0.000560    2.83  0.000398  (-0.012789  0.015233 -0.001586)
 34:    469.84   0.000471    2.38  0.000313  (-0.010503  0.010712 -0.009377)
 35:    501.22   0.001192    6.03  0.000742  ( 0.006157 -0.023331 -0.012653)
 36:    502.19   0.001651    8.34  0.001026  ( 0.011007  0.030071  0.000498)
 37:    531.23   0.003901   19.71  0.002291  ( 0.017110 -0.038035 -0.023496)
 38:    562.04   0.001132    5.72  0.000628  (-0.001546 -0.015258 -0.019830)
 39:    568.70   0.003693   18.66  0.002026  ( 0.042765  0.011357 -0.008280)
 40:    578.10   0.002649   13.38  0.001430  (-0.022916  0.026244  0.014692)
 41:    581.75   0.003140   15.87  0.001684  (-0.017247 -0.008290  0.036303)
 42:    623.15   0.003045   15.39  0.001525  ( 0.031408  0.023196  0.000754)
 43:    637.76   0.000900    4.55  0.000440  (-0.012216  0.016751 -0.003230)
 44:    657.27   0.000419    2.12  0.000199  ( 0.004996  0.013112 -0.001504)
 45:    695.84   0.016437   83.07  0.007372  (-0.062947  0.046165  0.035753)
 46:    722.54   0.002228   11.26  0.000962  (-0.023372  0.015109 -0.013706)
 47:    735.39   0.015765   79.67  0.006690  (-0.019155  0.077642  0.017170)
 48:    756.81   0.004845   24.49  0.001998  (-0.043342 -0.010927  0.000180)
 49:    770.54   0.016946   85.64  0.006863  (-0.019393 -0.080465 -0.003493)
 50:    786.25   0.009156   46.27  0.003634  ( 0.026472 -0.043753 -0.031922)
 51:    793.77   0.003020   15.26  0.001187  ( 0.014168 -0.004751 -0.031047)
 52:    802.78   0.000158    0.80  0.000061  (-0.004373  0.006493 -0.000083)
 53:    803.16   0.003379   17.08  0.001313  ( 0.026420 -0.007402 -0.023666)
 54:    844.56   0.000324    1.64  0.000120  ( 0.007312  0.006406  0.005027)
 55:    874.31   0.000204    1.03  0.000073  ( 0.004385 -0.007281  0.000858)
 56:    876.31   0.002484   12.55  0.000885  (-0.005985 -0.028498  0.006060)
 57:    885.99   0.001208    6.11  0.000426  ( 0.006258  0.008319 -0.017809)
 58:    914.50   0.002227   11.25  0.000760  ( 0.027525  0.001074  0.001009)
 59:    961.19   0.003369   17.02  0.001094  ( 0.021827  0.022209  0.011140)
 60:    967.35   0.002688   13.58  0.000867  (-0.025915  0.005384 -0.012907)
 61:    983.52   0.002163   10.93  0.000686  ( 0.022586  0.011279  0.006997)
 62:    993.58   0.000043    0.22  0.000013  (-0.003396  0.001076 -0.000833)
 63:   1012.14   0.000018    0.09  0.000006  ( 0.001580  0.001232 -0.001248)
 64:   1027.32   0.009600   48.51  0.002916  (-0.033616  0.038895  0.016526)
 65:   1051.52   0.000053    0.27  0.000016  ( 0.001849 -0.003381 -0.000981)
 66:   1056.98   0.001695    8.57  0.000501  ( 0.021800  0.005026  0.000025)
 67:   1064.40   0.001656    8.37  0.000485  (-0.021302 -0.005553  0.000933)
 68:   1071.96   0.013611   68.78  0.003962  ( 0.039644 -0.009221  0.048017)
 69:   1085.90   0.001356    6.85  0.000390  (-0.006447 -0.018375  0.003241)
 70:   1087.82   0.006167   31.16  0.001769  ( 0.003246  0.008141 -0.041136)
 71:   1134.14   0.005026   25.40  0.001383  (-0.010541  0.002629 -0.035564)
 72:   1145.47   0.008426   42.58  0.002296  (-0.009945  0.022740 -0.040982)
 73:   1169.01   0.003171   16.03  0.000847  ( 0.015354 -0.003245  0.024501)
 74:   1170.19   0.012622   63.78  0.003366  ( 0.044966 -0.004508  0.036382)
 75:   1171.01   0.000120    0.61  0.000032  (-0.000798  0.005607 -0.000065)
 76:   1175.93   0.000977    4.94  0.000259  ( 0.007181 -0.002846  0.014131)
 77:   1177.23   0.001411    7.13  0.000374  (-0.013792 -0.002949 -0.013238)
 78:   1203.93   0.004536   22.92  0.001176  (-0.024778 -0.015430 -0.017993)
 79:   1207.59   0.006486   32.78  0.001676  ( 0.020343  0.020298 -0.029158)
 80:   1214.33   0.006125   30.95  0.001574  ( 0.038177  0.003750 -0.010125)
 81:   1224.13   0.001823    9.21  0.000465  ( 0.014505  0.015395 -0.004164)
 82:   1229.11   0.015046   76.04  0.003820  (-0.021438 -0.055093  0.018037)
 83:   1238.20   0.001018    5.15  0.000257  ( 0.013741  0.007394  0.003626)
 84:   1270.19   0.071848  363.09  0.017652  (-0.119175 -0.045707  0.036880)
 85:   1290.15   0.043343  219.04  0.010484  ( 0.009244 -0.016769  0.100584)
 86:   1307.93   0.045237  228.61  0.010793  (-0.054935 -0.006784  0.087916)
 87:   1332.09   0.027555  139.25  0.006455  (-0.068475 -0.015920  0.038897)
 88:   1345.49   0.012398   62.66  0.002876  (-0.050258  0.015130 -0.010994)
 89:   1354.75   0.020392  103.05  0.004697  (-0.009730  0.006394 -0.067540)
 90:   1368.15   0.006994   35.35  0.001595  ( 0.026496 -0.029659  0.003693)
 91:   1379.01   0.009946   50.26  0.002251  ( 0.002142 -0.037669  0.028760)
 92:   1384.93   0.010918   55.17  0.002460  (-0.040857  0.016128 -0.023036)
 93:   1417.67   0.327098  1653.02  0.072002  (-0.249582  0.004262 -0.098451)
 94:   1429.82   0.005270   26.63  0.001150  ( 0.027643  0.018601 -0.006328)
 95:   1443.65   0.114667  579.48  0.024787  (-0.014819 -0.152265  0.037183)
 96:   1465.37   0.004932   24.92  0.001050  (-0.010545 -0.018883 -0.024136)
 97:   1465.90   0.009046   45.72  0.001926  ( 0.032297  0.019608 -0.022323)
 98:   1467.61   0.012938   65.38  0.002751  (-0.047047  0.012352  0.019623)
 99:   1472.49   0.006723   33.98  0.001425  ( 0.031229  0.017852 -0.011443)
100:   1474.83   0.003236   16.36  0.000685  ( 0.008866  0.024578 -0.001452)
101:   1483.14   0.004422   22.35  0.000930  ( 0.020036 -0.002292 -0.022884)
102:   1497.97   0.012073   61.01  0.002515  ( 0.001309 -0.000032 -0.050133)
103:   1530.05   0.014974   75.67  0.003054  ( 0.008365 -0.014237  0.052739)
104:   1538.51   0.031891  161.17  0.006469  ( 0.020929 -0.000803 -0.077653)
105:   1541.21   0.004545   22.97  0.000920  ( 0.023913  0.018655 -0.000615)
106:   1646.73   0.000192    0.97  0.000036  ( 0.003858  0.004560 -0.000837)
107:   1647.40   0.007948   40.17  0.001506  (-0.013349  0.000602 -0.036429)
108:   1664.27   0.012440   62.87  0.002333  (-0.027415  0.003664  0.039593)
109:   1697.45   0.014595   73.76  0.002683  ( 0.031775  0.039769 -0.009587)
110:   1798.63   0.100321  506.98  0.017406  ( 0.030043 -0.110585  0.065377)
111:   2288.56   0.094050  475.29  0.012824  (-0.058778  0.080264 -0.054104)
112:   3040.81   0.012046   60.88  0.001236  (-0.016289  0.006788 -0.030411)
113:   3076.12   0.005746   29.04  0.000583  ( 0.023540 -0.002037 -0.004958)
114:   3093.28   0.000831    4.20  0.000084  ( 0.002966  0.007598 -0.004157)
115:   3113.94   0.006665   33.68  0.000668  ( 0.005688  0.025048  0.002860)
116:   3163.99   0.002482   12.54  0.000245  (-0.000284  0.010729  0.011384)
117:   3168.90   0.003589   18.14  0.000353  (-0.013269  0.001077  0.013273)
118:   3179.55   0.004064   20.54  0.000399  (-0.016247  0.006751 -0.009450)
119:   3187.93   0.000618    3.12  0.000060  ( 0.005872 -0.001450  0.004890)
120:   3194.63   0.001745    8.82  0.000170  (-0.003016 -0.010167  0.007614)
121:   3197.86   0.001593    8.05  0.000155  (-0.011824  0.002295 -0.003225)
122:   3216.11   0.002507   12.67  0.000243  ( 0.008547 -0.000211 -0.013046)
123:   3223.33   0.000011    0.05  0.000001  ( 0.000470  0.000732 -0.000521)
124:   3233.45   0.000234    1.18  0.000023  (-0.002758  0.000934 -0.003753)
125:   3241.96   0.000132    0.67  0.000013  (-0.001882 -0.001926 -0.002333)
126:   3244.39   0.000968    4.89  0.000093  (-0.005261 -0.007366  0.003347)
127:   3260.47   0.002570   12.99  0.000246  ( 0.003885 -0.005963  0.013975)
128:   3272.44   0.002578   13.03  0.000246  ( 0.010401  0.001969  0.011566)

--------------------------
THERMOCHEMISTRY AT 298.15K
--------------------------

Temperature         ... 298.15 K
Pressure            ... 1.00 atm
Total Mass          ... 355.35 AMU

Throughout the following assumptions are being made:
  (1) The electronic state is orbitally nondegenerate
  (2) There are no thermally accessible electronically excited states
  (3) Hindered rotations indicated by low frequency modes are not
      treated as such but are treated as vibrations and this may
      cause some error
  (4) All equations used are the standard statistical mechanics
      equations for an ideal gas
  (5) All vibrations are strictly harmonic

freq.      10.74  E(vib)   ...       0.58
freq.      35.47  E(vib)   ...       0.54
freq.      43.26  E(vib)   ...       0.53
freq.      46.51  E(vib)   ...       0.53
freq.      61.50  E(vib)   ...       0.51
freq.      75.71  E(vib)   ...       0.49
freq.      85.03  E(vib)   ...       0.48
freq.      90.91  E(vib)   ...       0.47
freq.     102.46  E(vib)   ...       0.46
freq.     108.36  E(vib)   ...       0.45
freq.     121.31  E(vib)   ...       0.44
freq.     149.85  E(vib)   ...       0.40
freq.     152.36  E(vib)   ...       0.40
freq.     163.90  E(vib)   ...       0.39
freq.     172.22  E(vib)   ...       0.38
freq.     185.95  E(vib)   ...       0.37
freq.     200.91  E(vib)   ...       0.35
freq.     229.78  E(vib)   ...       0.32
freq.     246.89  E(vib)   ...       0.31
freq.     268.88  E(vib)   ...       0.29
freq.     278.65  E(vib)   ...       0.28
freq.     287.15  E(vib)   ...       0.27
freq.     296.55  E(vib)   ...       0.27
freq.     316.29  E(vib)   ...       0.25
freq.     331.38  E(vib)   ...       0.24
freq.     367.22  E(vib)   ...       0.22
freq.     409.82  E(vib)   ...       0.19
freq.     439.31  E(vib)   ...       0.17
freq.     469.84  E(vib)   ...       0.16
freq.     501.22  E(vib)   ...       0.14
freq.     502.19  E(vib)   ...       0.14
freq.     531.23  E(vib)   ...       0.13
freq.     562.04  E(vib)   ...       0.11
freq.     568.70  E(vib)   ...       0.11
freq.     578.10  E(vib)   ...       0.11
freq.     581.75  E(vib)   ...       0.11
freq.     623.15  E(vib)   ...       0.09
freq.     637.76  E(vib)   ...       0.09
freq.     657.27  E(vib)   ...       0.08
freq.     695.84  E(vib)   ...       0.07
freq.     722.54  E(vib)   ...       0.07
freq.     735.39  E(vib)   ...       0.06
freq.     756.81  E(vib)   ...       0.06
freq.     770.54  E(vib)   ...       0.05
freq.     786.25  E(vib)   ...       0.05
freq.     793.77  E(vib)   ...       0.05
freq.     802.78  E(vib)   ...       0.05
freq.     803.16  E(vib)   ...       0.05
freq.     844.56  E(vib)   ...       0.04
freq.     874.31  E(vib)   ...       0.04
freq.     876.31  E(vib)   ...       0.04
freq.     885.99  E(vib)   ...       0.04
freq.     914.50  E(vib)   ...       0.03
freq.     961.19  E(vib)   ...       0.03
freq.     967.35  E(vib)   ...       0.03
freq.     983.52  E(vib)   ...       0.02
freq.     993.58  E(vib)   ...       0.02
freq.    1012.14  E(vib)   ...       0.02
freq.    1027.32  E(vib)   ...       0.02
freq.    1051.52  E(vib)   ...       0.02
freq.    1056.98  E(vib)   ...       0.02
freq.    1064.40  E(vib)   ...       0.02
freq.    1071.96  E(vib)   ...       0.02
freq.    1085.90  E(vib)   ...       0.02
freq.    1087.82  E(vib)   ...       0.02
freq.    1134.14  E(vib)   ...       0.01
freq.    1145.47  E(vib)   ...       0.01
freq.    1169.01  E(vib)   ...       0.01
freq.    1170.19  E(vib)   ...       0.01
freq.    1171.01  E(vib)   ...       0.01
freq.    1175.93  E(vib)   ...       0.01
freq.    1177.23  E(vib)   ...       0.01
freq.    1203.93  E(vib)   ...       0.01
freq.    1207.59  E(vib)   ...       0.01
freq.    1214.33  E(vib)   ...       0.01
freq.    1224.13  E(vib)   ...       0.01
freq.    1229.11  E(vib)   ...       0.01
freq.    1238.20  E(vib)   ...       0.01
freq.    1270.19  E(vib)   ...       0.01
freq.    1290.15  E(vib)   ...       0.01
freq.    1307.93  E(vib)   ...       0.01
freq.    1332.09  E(vib)   ...       0.01
freq.    1345.49  E(vib)   ...       0.01
freq.    1354.75  E(vib)   ...       0.01
freq.    1368.15  E(vib)   ...       0.01
freq.    1379.01  E(vib)   ...       0.01
freq.    1384.93  E(vib)   ...       0.00
freq.    1417.67  E(vib)   ...       0.00
freq.    1429.82  E(vib)   ...       0.00
freq.    1443.65  E(vib)   ...       0.00
freq.    1465.37  E(vib)   ...       0.00
freq.    1465.90  E(vib)   ...       0.00
freq.    1467.61  E(vib)   ...       0.00
freq.    1472.49  E(vib)   ...       0.00
freq.    1474.83  E(vib)   ...       0.00
freq.    1483.14  E(vib)   ...       0.00
freq.    1497.97  E(vib)   ...       0.00
freq.    1530.05  E(vib)   ...       0.00
freq.    1538.51  E(vib)   ...       0.00
freq.    1541.21  E(vib)   ...       0.00
freq.    1646.73  E(vib)   ...       0.00
freq.    1647.40  E(vib)   ...       0.00
freq.    1664.27  E(vib)   ...       0.00
freq.    1697.45  E(vib)   ...       0.00
freq.    1798.63  E(vib)   ...       0.00
freq.    2288.56  E(vib)   ...       0.00
freq.    3040.81  E(vib)   ...       0.00
freq.    3076.12  E(vib)   ...       0.00
freq.    3093.28  E(vib)   ...       0.00
freq.    3113.94  E(vib)   ...       0.00
freq.    3163.99  E(vib)   ...       0.00
freq.    3168.90  E(vib)   ...       0.00
freq.    3179.55  E(vib)   ...       0.00
freq.    3187.93  E(vib)   ...       0.00
freq.    3194.63  E(vib)   ...       0.00
freq.    3197.86  E(vib)   ...       0.00
freq.    3216.11  E(vib)   ...       0.00
freq.    3223.33  E(vib)   ...       0.00
freq.    3233.45  E(vib)   ...       0.00
freq.    3241.96  E(vib)   ...       0.00
freq.    3244.39  E(vib)   ...       0.00
freq.    3260.47  E(vib)   ...       0.00
freq.    3272.44  E(vib)   ...       0.00

------------
INNER ENERGY
------------

The inner energy is: U= E(el) + E(ZPE) + E(vib) + E(rot) + E(trans)
    E(el)   - is the total energy from the electronic structure calculation
              = E(kin-el) + E(nuc-el) + E(el-el) + E(nuc-nuc)
    E(ZPE)  - the the zero temperature vibrational energy from the frequency calculation
    E(vib)  - the the finite temperature correction to E(ZPE) due to population
              of excited vibrational states
    E(rot)  - is the rotational thermal energy
    E(trans)- is the translational thermal energy

Summary of contributions to the inner energy U:
Electronic energy                ...  -1235.53932173 Eh
Zero point energy                ...      0.33418765 Eh     209.71 kcal/mol
Thermal vibrational correction   ...      0.02077587 Eh      13.04 kcal/mol
Thermal rotational correction    ...      0.00141627 Eh       0.89 kcal/mol
Thermal translational correction ...      0.00141627 Eh       0.89 kcal/mol
-----------------------------------------------------------------------

Rotational constants in cm-1:     0.008820     0.007327     0.005278

                             ****ORCA TERMINATED NORMALLY****
TOTAL RUN TIME: 0 days 1 hours 37 minutes 51 seconds 442 msec
