                         Program Version 5.0.4 -  RELEASE  -
|  1> %pal nprocs 24 end
|  2> ! PBE0 D3BJ def2-TZVP TightSCF OPT FREQ TightOpt
|  3> ! CPCM(dmso)
|  4> %scf
|  5> MaxIter 800
|  6> end
|  7>
|  8> %geom
|  9> MaxIter 800
| 10> MaxStep 0.15
| 11> end
| 12>
| 13> *xyz 0 1
| 14> C      -3.44394100      2.47329200     -0.18941700
| 15> C      -2.61610500      2.48025100      0.92976100
| 16> C      -1.32435700      1.99814000      0.82195200
| 17> N      -0.85828100      1.55258800     -0.36210400
| 18> C      -1.64460900      1.53944200     -1.45966200
| 19> C      -2.94678200      1.99351400     -1.40061200
| 20> C       0.48561300      0.95709700     -0.47756500
| 21> C       1.55993300      1.83372900      0.14864200
| 22> O       1.52934900      2.24181200      1.28539600
| 23> O       2.55196900      2.04533100     -0.69223300
| 24> C       3.68596900      2.74360700     -0.18138900
| 25> H      -4.47109600      2.83803500     -0.12032600
| 26> H      -0.62536500      1.96778800      1.65636200
| 27> H      -1.19327000      1.15216700     -2.37330400
| 28> H      -3.55846300      1.96797000     -2.30308100
| 29> H       0.70598300      0.84084800     -1.54233600
| 30> H       3.40092800      3.75575000      0.13756700
| 31> H       4.40697700      2.79103100     -1.00401100
| 32> C       1.88401300     -1.06903400      0.11807000
| 33> C       0.52072900     -0.43852800      0.19020100
| 34> C      -0.65228900     -1.29109700     -0.25704000
| 35> C      -0.65305000     -1.96806600     -1.47817400
| 36> C      -1.74915500     -2.72912500     -1.88662400
| 37> C      -2.86792400     -2.81571800     -1.06206700
| 38> C      -2.89507800     -2.15229500      0.16490900
| 39> C      -1.79284800     -1.39045300      0.56951200
| 40> O      -1.74757800     -0.71638200      1.74135800
| 41> C      -2.88086600     -0.70554300      2.57655400
| 42> N       2.57308600     -1.13397300     -1.05488300
| 43> O       3.72500300     -1.61987500     -1.10366900
| 44> H       0.36667000     -0.24020200      1.25949400
| 45> H       0.23273400     -1.87012800     -2.10969700
| 46> H      -1.72728200     -3.24877700     -2.84728000
| 47> H      -3.73574100     -3.40559900     -1.36835000
| 48> H      -3.77631000     -2.23264700      0.80193800
| 49> H      -2.62635500     -0.07286200      3.43573200
| 50> H      -3.13009000     -1.71842100      2.93288800
| 51> H      -3.75618100     -0.27862200      2.05882100
| 52> O       2.05345600     -0.69511500     -2.12177500
| 53> H       4.11340000      2.19863900      0.67202900
| 54> H      -2.96465000      2.84372200      1.89709200
| 55> C       2.46826900     -1.66199500      1.28875300
| 56> H       3.47041000     -2.06481100      1.11876800
| 57> C       1.92140300     -1.77815800      2.52035500
| 58> H       0.91486500     -1.42124700      2.76017900
| 59> H       2.48105400     -2.25571300      3.32818300
| 60> *
| 61>
| 62>                          ****END OF INPUT****
 Total Charge           Charge          ....    0
 Multiplicity           Mult            ....    1
 Number of Electrons    NEL             ....  188
Dispersion correction           -0.060677242
FINAL SINGLE POINT ENERGY     -1220.684436293851
Dispersion correction            ... done
Dispersion correction           -0.060631160
FINAL SINGLE POINT ENERGY     -1220.686546097708
Dispersion correction            ... done
Dispersion correction           -0.060588632
FINAL SINGLE POINT ENERGY     -1220.686666304295
Dispersion correction            ... done
FINAL SINGLE POINT ENERGY     -1220.686663444374
FINAL SINGLE POINT ENERGY     -1220.686856553807
FINAL SINGLE POINT ENERGY     -1220.686879107672
FINAL SINGLE POINT ENERGY     -1220.686935964423
FINAL SINGLE POINT ENERGY     -1220.686948187861
FINAL SINGLE POINT ENERGY     -1220.686967329436
FINAL SINGLE POINT ENERGY     -1220.686979361418
FINAL SINGLE POINT ENERGY     -1220.686983150653
FINAL SINGLE POINT ENERGY     -1220.686993889433
FINAL SINGLE POINT ENERGY     -1220.686997699750
FINAL SINGLE POINT ENERGY     -1220.687001381988
FINAL SINGLE POINT ENERGY     -1220.687005724473
FINAL SINGLE POINT ENERGY     -1220.687006279119
FINAL SINGLE POINT ENERGY     -1220.687007886928
Dispersion correction           -0.060293076
FINAL SINGLE POINT ENERGY     -1220.687008674655
Dispersion correction            ... done
Dispersion correction           -0.060294131
FINAL SINGLE POINT ENERGY     -1220.687008902372
Dispersion correction            ... done
                    ***********************HURRAY********************

CARTESIAN COORDINATES (ANGSTROEM)
---------------------------------
  C     -3.332830    2.604549   -0.151955
  C     -2.520231    2.497981    0.964961
  C     -1.264656    1.952363    0.836185
  N     -0.819414    1.546122   -0.364018
  C     -1.591859    1.643194   -1.459975
  C     -2.858187    2.168471   -1.380015
  C      0.503258    0.904017   -0.503239
  C      1.597133    1.783718    0.089021
  O      1.662842    2.079604    1.256520
  O      2.460642    2.158026   -0.832387
  C      3.580482    2.927210   -0.374859
  H     -4.328637    3.021995   -0.067432
  H     -0.585001    1.831625    1.665848
  H     -1.160468    1.285656   -2.384107
  H     -3.458190    2.231168   -2.277483
  H      0.685651    0.777317   -1.564320
  H      3.238018    3.871647    0.047475
  H      4.193217    3.100252   -1.255004
  C      1.862432   -1.120346    0.189917
  C      0.510792   -0.463919    0.201425
  C     -0.653268   -1.322156   -0.249799
  C     -0.649907   -1.975354   -1.475616
  C     -1.730328   -2.741153   -1.892561
  C     -2.839002   -2.858026   -1.070143
  C     -2.869739   -2.220601    0.162423
  C     -1.782762   -1.454555    0.574263
  O     -1.743733   -0.807030    1.762934
  C     -2.899721   -0.821085    2.576804
  N      2.601523   -1.207508   -0.933807
  O      3.752970   -1.728230   -0.922967
  H      0.337366   -0.230774    1.252501
  H      0.224138   -1.864094   -2.105908
  H     -1.704107   -3.239468   -2.854434
  H     -3.692746   -3.449764   -1.381113
  H     -3.739887   -2.323618    0.796681
  H     -2.664008   -0.204970    3.442191
  H     -3.141306   -1.835403    2.906187
  H     -3.757441   -0.395501    2.047564
  O      2.152669   -0.763017   -2.034792
  H      4.135965    2.365044    0.375561
  H     -2.851918    2.822772    1.941640
  C      2.374044   -1.711127    1.390193
  H      3.357898   -2.153668    1.282736
  C      1.770338   -1.784477    2.589311
  H      0.779670   -1.387998    2.784410
  H      2.272444   -2.268524    3.418099

 Multiplicity           Mult            ....    1
 Number of Electrons    NEL             ....  188
 Basis Dimension        Dim             ....  926

ORBITAL ENERGIES
----------------

  NO   OCC          E(Eh)            E(eV)
   0   2.0000     -19.274360      -524.4820
   1   2.0000     -19.246495      -523.7238
   2   2.0000     -19.215131      -522.8703
   3   2.0000     -19.172228      -521.7029
   4   2.0000     -19.169125      -521.6184
   5   2.0000     -14.556297      -396.0970
   6   2.0000     -14.515912      -394.9980
   7   2.0000     -10.372708      -282.2557
   8   2.0000     -10.313548      -280.6459
   9   2.0000     -10.311561      -280.5918
  10   2.0000     -10.301197      -280.3098
  11   2.0000     -10.290705      -280.0243
  12   2.0000     -10.279826      -279.7283
  13   2.0000     -10.273972      -279.5690
  14   2.0000     -10.268610      -279.4231
  15   2.0000     -10.268342      -279.4158
  16   2.0000     -10.267431      -279.3910
  17   2.0000     -10.256027      -279.0807
  18   2.0000     -10.240129      -278.6481
  19   2.0000     -10.237619      -278.5798
  20   2.0000     -10.228563      -278.3334
  21   2.0000     -10.225386      -278.2469
  22   2.0000     -10.223917      -278.2069
  23   2.0000     -10.220623      -278.1173
  24   2.0000     -10.219800      -278.0949
  25   2.0000     -10.200833      -277.5788
  26   2.0000      -1.186426       -32.2843
  27   2.0000      -1.165394       -31.7120
  28   2.0000      -1.109112       -30.1805
  29   2.0000      -1.084076       -29.4992
  30   2.0000      -1.070491       -29.1295
  31   2.0000      -1.002331       -27.2748
  32   2.0000      -0.907518       -24.6948
  33   2.0000      -0.888279       -24.1713
  34   2.0000      -0.865298       -23.5460
  35   2.0000      -0.845905       -23.0182
  36   2.0000      -0.821325       -22.3494
  37   2.0000      -0.795536       -21.6476
  38   2.0000      -0.776578       -21.1318
  39   2.0000      -0.764799       -20.8112
  40   2.0000      -0.756436       -20.5837
  41   2.0000      -0.723561       -19.6891
  42   2.0000      -0.718137       -19.5415
  43   2.0000      -0.707034       -19.2394
  44   2.0000      -0.679211       -18.4823
  45   2.0000      -0.631656       -17.1882
  46   2.0000      -0.618381       -16.8270
  47   2.0000      -0.615028       -16.7358
  48   2.0000      -0.608892       -16.5688
  49   2.0000      -0.580064       -15.7843
  50   2.0000      -0.568403       -15.4670
  51   2.0000      -0.557713       -15.1762
  52   2.0000      -0.552082       -15.0229
  53   2.0000      -0.543871       -14.7995
  54   2.0000      -0.536153       -14.5895
  55   2.0000      -0.523897       -14.2560
  56   2.0000      -0.517396       -14.0791
  57   2.0000      -0.516084       -14.0434
  58   2.0000      -0.507710       -13.8155
  59   2.0000      -0.500457       -13.6181
  60   2.0000      -0.497563       -13.5394
  61   2.0000      -0.493239       -13.4217
  62   2.0000      -0.492734       -13.4080
  63   2.0000      -0.487358       -13.2617
  64   2.0000      -0.480902       -13.0860
  65   2.0000      -0.474176       -12.9030
  66   2.0000      -0.459401       -12.5009
  67   2.0000      -0.451049       -12.2737
  68   2.0000      -0.433337       -11.7917
  69   2.0000      -0.429907       -11.6984
  70   2.0000      -0.427128       -11.6227
  71   2.0000      -0.424299       -11.5458
  72   2.0000      -0.417649       -11.3648
  73   2.0000      -0.415178       -11.2976
  74   2.0000      -0.412004       -11.2112
  75   2.0000      -0.405243       -11.0272
  76   2.0000      -0.390711       -10.6318
  77   2.0000      -0.387125       -10.5342
  78   2.0000      -0.380919       -10.3653
  79   2.0000      -0.366017        -9.9598
  80   2.0000      -0.353077        -9.6077
  81   2.0000      -0.347812        -9.4645
  82   2.0000      -0.344963        -9.3869
  83   2.0000      -0.341869        -9.3027
  84   2.0000      -0.338417        -9.2088
  85   2.0000      -0.320568        -8.7231
  86   2.0000      -0.315937        -8.5971
  87   2.0000      -0.306643        -8.3442
  88   2.0000      -0.292012        -7.9460
  89   2.0000      -0.279807        -7.6139
  90   2.0000      -0.269389        -7.3304
  91   2.0000      -0.254815        -6.9339
  92   2.0000      -0.240769        -6.5517
  93   2.0000      -0.193051        -5.2532
  94   0.0000      -0.086579        -2.3559
  95   0.0000      -0.049440        -1.3453
  96   0.0000      -0.024717        -0.6726
  97   0.0000      -0.021551        -0.5864
  98   0.0000      -0.006874        -0.1871

MULLIKEN ATOMIC CHARGES
-----------------------
   0 C :   -0.085325
   1 C :   -0.130335
   2 C :   -0.026242
   3 N :    0.192860
   4 C :   -0.028986
   5 C :   -0.126397
   6 C :   -0.091523
   7 C :    0.325922
   8 O :   -0.386862
   9 O :   -0.203411
  10 C :   -0.263854
  11 H :    0.189460
  12 H :    0.210408
  13 H :    0.206837
  14 H :    0.193269
  15 H :    0.167698
  16 H :    0.159688
  17 H :    0.166796
  18 C :   -0.069403
  19 C :    0.002895
  20 C :   -0.006304
  21 C :   -0.225805
  22 C :   -0.188134
  23 C :   -0.147230
  24 C :   -0.314448
  25 C :    0.328535
  26 O :   -0.275798
  27 C :   -0.284142
  28 N :    0.498318
  29 O :   -0.560962
  30 H :    0.132181
  31 H :    0.143951
  32 H :    0.144601
  33 H :    0.150605
  34 H :    0.162836
  35 H :    0.162222
  36 H :    0.158761
  37 H :    0.154267
  38 O :   -0.558237
  39 H :    0.159794
  40 H :    0.190359
  41 C :   -0.253074
  42 H :    0.130202
  43 C :   -0.400974
  44 H :    0.146636
  45 H :    0.148346
Sum of atomic charges:   -0.0000000

LOEWDIN ATOMIC CHARGES
----------------------
   0 C :   -0.052230
   1 C :   -0.096235
   2 C :   -0.076113
   3 N :    0.341945
   4 C :   -0.073981
   5 C :   -0.096065
   6 C :   -0.151983
   7 C :   -0.472428
   8 O :    0.102093
   9 O :    0.284806
  10 C :   -0.292408
  11 H :    0.172660
  12 H :    0.173850
  13 H :    0.177264
  14 H :    0.174797
  15 H :    0.178449
  16 H :    0.121595
  17 H :    0.124334
  18 C :   -0.245845
  19 C :   -0.159733
  20 C :   -0.101701
  21 C :   -0.107515
  22 C :   -0.166951
  23 C :   -0.147156
  24 C :   -0.141166
  25 C :   -0.235319
  26 O :    0.249856
  27 C :   -0.330263
  28 N :   -0.046277
  29 O :   -0.249290
  30 H :    0.187008
  31 H :    0.157552
  32 H :    0.151177
  33 H :    0.153933
  34 H :    0.160096
  35 H :    0.122633
  36 H :    0.118751
  37 H :    0.118132
  38 O :   -0.231350
  39 H :    0.122182
  40 H :    0.174870
  41 C :   -0.212793
  42 H :    0.153158
  43 C :   -0.274602
  44 H :    0.117921
  45 H :    0.122343

  Mayer bond orders larger than 0.100000
B(  0-C ,  1-C ) :   1.4119 B(  0-C ,  5-C ) :   1.3981 B(  0-C , 11-H ) :   0.9424
B(  1-C ,  2-C ) :   1.4465 B(  1-C , 40-H ) :   0.9439 B(  2-C ,  3-N ) :   1.2745
B(  2-C , 12-H ) :   0.9205 B(  3-N ,  4-C ) :   1.2782 B(  3-N ,  6-C ) :   0.8132
B(  4-C ,  5-C ) :   1.4476 B(  4-C , 13-H ) :   0.9313 B(  5-C , 14-H ) :   0.9438
B(  6-C ,  7-C ) :   0.9438 B(  6-C , 15-H ) :   0.9317 B(  6-C , 19-C ) :   0.9928
B(  7-C ,  8-O ) :   1.8974 B(  7-C ,  9-O ) :   1.2949 B(  9-O , 10-C ) :   0.8803
B( 10-C , 16-H ) :   0.9651 B( 10-C , 17-H ) :   0.9622 B( 10-C , 39-H ) :   0.9636
B( 18-C , 19-C ) :   0.9811 B( 18-C , 28-N ) :   1.4279 B( 18-C , 38-O ) :   0.1004
B( 18-C , 41-C ) :   1.1714 B( 19-C , 20-C ) :   0.8077 B( 19-C , 30-H ) :   0.9441
B( 20-C , 21-C ) :   1.3864 B( 20-C , 25-C ) :   1.2652 B( 21-C , 22-C ) :   1.4132
B( 21-C , 31-H ) :   0.9520 B( 22-C , 23-C ) :   1.4003 B( 22-C , 32-H ) :   0.9843
B( 23-C , 24-C ) :   1.4000 B( 23-C , 33-H ) :   0.9699 B( 24-C , 25-C ) :   1.3764
B( 24-C , 34-H ) :   0.9630 B( 25-C , 26-O ) :   1.0450 B( 26-O , 27-C ) :   0.9325
B( 27-C , 35-H ) :   0.9659 B( 27-C , 36-H ) :   0.9571 B( 27-C , 37-H ) :   0.9633
B( 28-N , 29-O ) :   1.3336 B( 28-N , 38-O ) :   1.2657 B( 41-C , 42-H ) :   0.9425
B( 41-C , 43-C ) :   1.8090 B( 43-C , 44-H ) :   0.9452 B( 43-C , 45-H ) :   0.9668

Dispersion correction           -0.060294153
FINAL SINGLE POINT ENERGY     -1220.687008751878

DIPOLE MOMENT
-------------
                                X             Y             Z
Electronic contribution:      2.71426       3.26757      -7.06518
Nuclear contribution   :    -10.56524       1.96378       8.09123
                        -----------------------------------------
Total Dipole Moment    :     -7.85098       5.23135       1.02605
                        -----------------------------------------
Magnitude (a.u.)       :      9.48987
Magnitude (Debye)      :     24.12134

Dispersion correction in the Hessian             ... done   (      0.7 sec)

VIBRATIONAL FREQUENCIES
-----------------------

Scaling factor for frequencies =  1.000000000  (already applied!)

   0:         0.00 cm**-1
   1:         0.00 cm**-1
   2:         0.00 cm**-1
   3:         0.00 cm**-1
   4:         0.00 cm**-1
   5:         0.00 cm**-1
   6:        21.95 cm**-1
   7:        29.25 cm**-1
   8:        32.86 cm**-1
   9:        38.23 cm**-1
  10:        51.36 cm**-1
  11:        68.43 cm**-1
  12:        70.26 cm**-1
  13:        86.83 cm**-1
  14:        99.95 cm**-1
  15:       105.65 cm**-1
  16:       122.82 cm**-1
  17:       151.92 cm**-1
  18:       157.07 cm**-1
  19:       161.52 cm**-1
  20:       172.10 cm**-1
  21:       181.04 cm**-1
  22:       205.42 cm**-1
  23:       210.58 cm**-1
  24:       215.29 cm**-1
  25:       248.03 cm**-1
  26:       267.00 cm**-1
  27:       282.65 cm**-1
  28:       286.92 cm**-1
  29:       314.57 cm**-1
  30:       338.76 cm**-1
  31:       358.55 cm**-1
  32:       361.32 cm**-1
  33:       412.47 cm**-1
  34:       443.10 cm**-1
  35:       478.52 cm**-1
  36:       483.40 cm**-1
  37:       498.25 cm**-1
  38:       530.22 cm**-1
  39:       572.30 cm**-1
  40:       574.80 cm**-1
  41:       598.57 cm**-1
  42:       613.14 cm**-1
  43:       637.16 cm**-1
  44:       657.65 cm**-1
  45:       685.46 cm**-1
  46:       699.20 cm**-1
  47:       713.67 cm**-1
  48:       734.39 cm**-1
  49:       762.40 cm**-1
  50:       771.62 cm**-1
  51:       776.58 cm**-1
  52:       785.98 cm**-1
  53:       803.16 cm**-1
  54:       811.28 cm**-1
  55:       849.27 cm**-1
  56:       856.56 cm**-1
  57:       865.28 cm**-1
  58:       880.92 cm**-1
  59:       882.21 cm**-1
  60:       916.67 cm**-1
  61:       966.00 cm**-1
  62:       976.48 cm**-1
  63:       990.93 cm**-1
  64:      1007.64 cm**-1
  65:      1013.84 cm**-1
  66:      1017.33 cm**-1
  67:      1030.39 cm**-1
  68:      1046.92 cm**-1
  69:      1050.42 cm**-1
  70:      1062.69 cm**-1
  71:      1068.36 cm**-1
  72:      1085.14 cm**-1
  73:      1085.57 cm**-1
  74:      1101.17 cm**-1
  75:      1127.00 cm**-1
  76:      1133.84 cm**-1
  77:      1165.49 cm**-1
  78:      1170.84 cm**-1
  79:      1171.11 cm**-1
  80:      1175.29 cm**-1
  81:      1177.18 cm**-1
  82:      1196.75 cm**-1
  83:      1201.85 cm**-1
  84:      1206.47 cm**-1
  85:      1219.41 cm**-1
  86:      1225.96 cm**-1
  87:      1235.23 cm**-1
  88:      1260.43 cm**-1
  89:      1267.66 cm**-1
  90:      1292.11 cm**-1
  91:      1294.15 cm**-1
  92:      1314.74 cm**-1
  93:      1328.85 cm**-1
  94:      1351.19 cm**-1
  95:      1370.11 cm**-1
  96:      1380.25 cm**-1
  97:      1390.45 cm**-1
  98:      1422.18 cm**-1
  99:      1427.65 cm**-1
 100:      1460.94 cm**-1
 101:      1464.72 cm**-1
 102:      1465.16 cm**-1
 103:      1470.62 cm**-1
 104:      1471.49 cm**-1
 105:      1472.80 cm**-1
 106:      1475.96 cm**-1
 107:      1483.55 cm**-1
 108:      1497.19 cm**-1
 109:      1527.22 cm**-1
 110:      1532.18 cm**-1
 111:      1535.86 cm**-1
 112:      1644.12 cm**-1
 113:      1645.16 cm**-1
 114:      1649.24 cm**-1
 115:      1661.97 cm**-1
 116:      1695.54 cm**-1
 117:      1788.59 cm**-1
 118:      3036.60 cm**-1
 119:      3076.44 cm**-1
 120:      3108.29 cm**-1
 121:      3116.25 cm**-1
 122:      3154.00 cm**-1
 123:      3162.73 cm**-1
 124:      3164.50 cm**-1
 125:      3191.01 cm**-1
 126:      3196.42 cm**-1
 127:      3197.18 cm**-1
 128:      3197.75 cm**-1
 129:      3202.88 cm**-1
 130:      3212.69 cm**-1
 131:      3223.07 cm**-1
 132:      3229.77 cm**-1
 133:      3241.45 cm**-1
 134:      3241.67 cm**-1
 135:      3244.38 cm**-1
 136:      3259.86 cm**-1
 137:      3268.83 cm**-1

IR SPECTRUM
-----------

 Mode   freq       eps      Int      T**2         TX        TY        TZ
       cm**-1   L/(mol*cm) km/mol    a.u.
----------------------------------------------------------------------------
  6:     21.95   0.000555    2.81  0.007891  (-0.053196  0.071059 -0.003408)
  7:     29.25   0.000650    3.28  0.006932  ( 0.031338 -0.062928  0.044612)
  8:     32.86   0.000330    1.67  0.003134  ( 0.011326 -0.021451  0.050455)
  9:     38.23   0.000519    2.62  0.004233  ( 0.026393  0.059397  0.002937)
 10:     51.36   0.000529    2.67  0.003212  (-0.003426 -0.056364 -0.004812)
 11:     68.43   0.001447    7.31  0.006601  ( 0.046035  0.056416  0.036037)
 12:     70.26   0.000132    0.67  0.000587  (-0.000751 -0.023812 -0.004425)
 13:     86.83   0.000218    1.10  0.000784  ( 0.026577  0.006757  0.005643)
 14:     99.95   0.001409    7.12  0.004399  ( 0.014674 -0.047994  0.043356)
 15:    105.65   0.000483    2.44  0.001428  ( 0.016356 -0.027984 -0.019420)
 16:    122.82   0.000894    4.52  0.002270  (-0.041925  0.017584 -0.014264)
 17:    151.92   0.000313    1.58  0.000643  ( 0.023309 -0.002217  0.009720)
 18:    157.07   0.000975    4.93  0.001937  (-0.020297 -0.038488 -0.006586)
 19:    161.52   0.000076    0.38  0.000146  (-0.005847  0.009436 -0.004773)
 20:    172.10   0.000457    2.31  0.000829  ( 0.017147  0.022066 -0.006935)
 21:    181.04   0.000547    2.77  0.000944  (-0.014404 -0.025849 -0.008243)
 22:    205.42   0.001190    6.01  0.001808  ( 0.039125 -0.016192 -0.003829)
 23:    210.58   0.000451    2.28  0.000668  ( 0.013561 -0.014880 -0.016214)
 24:    215.29   0.006295   31.81  0.009124  (-0.062961  0.066118 -0.028079)
 25:    248.03   0.000168    0.85  0.000212  ( 0.010617 -0.009886  0.001119)
 26:    267.00   0.001858    9.39  0.002172  (-0.043650 -0.003633  0.015909)
 27:    282.65   0.001208    6.11  0.001334  (-0.015533  0.015436  0.029231)
 28:    286.92   0.003273   16.54  0.003560  (-0.015098 -0.018481  0.054684)
 29:    314.57   0.000133    0.67  0.000132  ( 0.002135 -0.009861 -0.005532)
 30:    338.76   0.001074    5.43  0.000989  (-0.023386 -0.020284 -0.005575)
 31:    358.55   0.004588   23.19  0.003994  ( 0.056811  0.026729 -0.007187)
 32:    361.32   0.000180    0.91  0.000156  ( 0.002316  0.011417 -0.004463)
 33:    412.47   0.000068    0.34  0.000051  (-0.006602 -0.002561  0.001007)
 34:    443.10   0.000483    2.44  0.000340  ( 0.010979 -0.005455  0.013767)
 35:    478.52   0.000186    0.94  0.000121  ( 0.008457  0.001026  0.006988)
 36:    483.40   0.000240    1.21  0.000155  ( 0.009328 -0.002078  0.007991)
 37:    498.25   0.000935    4.73  0.000586  ( 0.022275  0.004507  0.008326)
 38:    530.22   0.012508   63.21  0.007362  ( 0.009266 -0.077948  0.034641)
 39:    572.30   0.006303   31.85  0.003437  (-0.012555 -0.051478 -0.025087)
 40:    574.80   0.004524   22.86  0.002456  (-0.016412  0.009265 -0.045838)
 41:    598.57   0.000521    2.63  0.000272  ( 0.002245  0.013354  0.009389)
 42:    613.14   0.004789   24.20  0.002438  (-0.044060  0.016102  0.015396)
 43:    637.16   0.003185   16.10  0.001560  ( 0.018839  0.016525 -0.030528)
 44:    657.65   0.000559    2.82  0.000265  ( 0.011000 -0.004566 -0.011103)
 45:    685.46   0.000926    4.68  0.000422  ( 0.007702  0.019002 -0.001045)
 46:    699.20   0.015823   79.96  0.007062  (-0.044622 -0.068911  0.017949)
 47:    713.67   0.012490   63.12  0.005462  ( 0.024320 -0.069160  0.009326)
 48:    734.39   0.000822    4.15  0.000349  ( 0.016368  0.008272  0.003605)
 49:    762.40   0.006509   32.89  0.002664  (-0.021747 -0.046586  0.004582)
 50:    771.62   0.009631   48.67  0.003895  (-0.051927  0.030718 -0.015966)
 51:    776.58   0.011108   56.13  0.004464  ( 0.026078 -0.037822  0.048508)
 52:    785.98   0.010344   52.27  0.004107  (-0.000060 -0.064083 -0.000535)
 53:    803.16   0.001588    8.02  0.000617  (-0.002453  0.024501  0.003246)
 54:    811.28   0.005706   28.83  0.002195  ( 0.011801  0.017256  0.041924)
 55:    849.27   0.009698   49.01  0.003563  (-0.027327 -0.052647 -0.006696)
 56:    856.56   0.014317   72.35  0.005216  (-0.022306 -0.059606 -0.034140)
 57:    865.28   0.004791   24.21  0.001728  (-0.027184 -0.003734  0.031225)
 58:    880.92   0.001633    8.25  0.000578  (-0.014721  0.015684  0.010757)
 59:    882.21   0.000296    1.49  0.000105  (-0.008552  0.005013  0.002512)
 60:    916.67   0.003093   15.63  0.001053  ( 0.025814  0.007655 -0.018108)
 61:    966.00   0.002851   14.41  0.000921  (-0.028652 -0.006445 -0.007655)
 62:    976.48   0.000683    3.45  0.000218  (-0.005509 -0.013430  0.002774)
 63:    990.93   0.001285    6.50  0.000405  (-0.019694 -0.002197  0.003484)
 64:   1007.64   0.001182    5.97  0.000366  (-0.009886 -0.016010  0.003470)
 65:   1013.84   0.002277   11.51  0.000701  (-0.021043 -0.014794  0.006251)
 66:   1017.33   0.000775    3.92  0.000238  (-0.014370 -0.005571  0.000364)
 67:   1030.39   0.007267   36.72  0.002201  (-0.020070 -0.038327 -0.018142)
 68:   1046.92   0.007317   36.98  0.002181  (-0.000805 -0.015912 -0.043899)
 69:   1050.42   0.000241    1.22  0.000072  (-0.000322 -0.006622 -0.005260)
 70:   1062.69   0.000268    1.35  0.000079  ( 0.004531  0.005060  0.005706)
 71:   1068.36   0.010835   54.76  0.003165  (-0.054163 -0.010715  0.010791)
 72:   1085.14   0.012414   62.74  0.003570  (-0.013292  0.007938  0.057709)
 73:   1085.57   0.007831   39.57  0.002251  (-0.027354  0.014184  0.036079)
 74:   1101.17   0.004861   24.56  0.001377  ( 0.009353 -0.000173 -0.035915)
 75:   1127.00   0.006480   32.75  0.001794  (-0.021733  0.006642  0.035746)
 76:   1133.84   0.000475    2.40  0.000131  ( 0.010903 -0.002779 -0.002023)
 77:   1165.49   0.059131  298.83  0.015833  (-0.049018 -0.000061  0.115887)
 78:   1170.84   0.000308    1.56  0.000082  ( 0.005838 -0.005232  0.004542)
 79:   1171.11   0.000601    3.04  0.000160  ( 0.003620 -0.006948  0.009935)
 80:   1175.29   0.008942   45.19  0.002374  ( 0.034383  0.001573 -0.034492)
 81:   1177.18   0.001466    7.41  0.000389  (-0.010348  0.000160 -0.016776)
 82:   1196.75   0.002740   13.84  0.000714  ( 0.007860  0.001756 -0.025485)
 83:   1201.85   0.011531   58.27  0.002994  ( 0.052586  0.014170  0.005296)
 84:   1206.47   0.024412  123.37  0.006314  ( 0.053370 -0.016083 -0.056632)
 85:   1219.41   0.008114   41.01  0.002077  (-0.026366  0.017045  0.033028)
 86:   1225.96   0.025047  126.58  0.006376  (-0.063726  0.012068 -0.046573)
 87:   1235.23   0.001328    6.71  0.000336  ( 0.007350 -0.002043 -0.016653)
 88:   1260.43   0.096490  487.62  0.023889  (-0.101914 -0.071181  0.091849)
 89:   1267.66   0.066274  334.92  0.016315  (-0.089694  0.028387  0.086395)
 90:   1292.11   0.046822  236.62  0.011308  ( 0.010088  0.006472 -0.105663)
 91:   1294.15   0.015680   79.24  0.003781  ( 0.011377 -0.046227 -0.038918)
 92:   1314.74   0.036539  184.65  0.008673  ( 0.049885 -0.027388 -0.073717)
 93:   1328.85   0.033407  168.83  0.007845  (-0.087345  0.014526 -0.002258)
 94:   1351.19   0.041130  207.85  0.009499  ( 0.008314  0.066729 -0.070549)
 95:   1370.11   0.055577  280.87  0.012659  (-0.101848  0.017131 -0.044633)
 96:   1380.25   0.007443   37.62  0.001683  ( 0.039427  0.009126  0.006717)
 97:   1390.45   0.015041   76.01  0.003376  ( 0.007431  0.021422  0.053494)
 98:   1422.18   0.007640   38.61  0.001676  (-0.018442 -0.032805 -0.016128)
 99:   1427.65   0.008143   41.15  0.001780  (-0.030397  0.020223 -0.021140)
100:   1460.94   0.086903  439.17  0.018563  (-0.096627  0.020134  0.093919)
101:   1464.72   0.051045  257.96  0.010875  (-0.030656  0.011329  0.099031)
102:   1465.16   0.004561   23.05  0.000971  ( 0.020485 -0.023389 -0.002159)
103:   1470.62   0.005108   25.81  0.001084  ( 0.027233  0.016989 -0.007325)
104:   1471.49   0.021863  110.49  0.004637  ( 0.012918  0.017448  0.064539)
105:   1472.80   0.002988   15.10  0.000633  (-0.013830  0.020994  0.001077)
106:   1475.96   0.154259  779.56  0.032615  ( 0.098376  0.028246 -0.148793)
107:   1483.55   0.002549   12.88  0.000536  ( 0.016525  0.013614  0.008815)
108:   1497.19   0.011516   58.20  0.002400  (-0.010788  0.021033  0.042914)
109:   1527.22   0.032821  165.86  0.006706  (-0.018255  0.012252  0.078887)
110:   1532.18   0.014438   72.96  0.002941  ( 0.012241  0.035624  0.039008)
111:   1535.86   0.005513   27.86  0.001120  (-0.009128  0.017424 -0.027077)
112:   1644.12   0.002063   10.42  0.000392  ( 0.016343 -0.007646  0.008121)
113:   1645.16   0.002661   13.45  0.000505  ( 0.005359 -0.001185 -0.021787)
114:   1649.24   0.033658  170.09  0.006369  (-0.001922  0.023899 -0.076117)
115:   1661.97   0.014014   70.82  0.002631  (-0.000222  0.020835  0.046875)
116:   1695.54   0.014921   75.40  0.002746  ( 0.047490 -0.022154  0.000198)
117:   1788.59   0.084943  429.27  0.014820  ( 0.017478 -0.017510 -0.119199)
118:   3036.60   0.012093   61.11  0.001243  (-0.026974  0.000935  0.022678)
119:   3076.44   0.004870   24.61  0.000494  ( 0.017879  0.012717  0.003557)
120:   3108.29   0.007772   39.28  0.000780  (-0.008362  0.022305 -0.014589)
121:   3116.25   0.001172    5.92  0.000117  ( 0.000800 -0.010793  0.000495)
122:   3154.00   0.000494    2.50  0.000049  ( 0.005450 -0.003293 -0.002883)
123:   3162.73   0.002985   15.08  0.000295  (-0.008485  0.014635 -0.002885)
124:   3164.50   0.003706   18.73  0.000365  (-0.005176 -0.010800 -0.014899)
125:   3191.01   0.001426    7.21  0.000140  ( 0.010935  0.004336 -0.001066)
126:   3196.42   0.001386    7.00  0.000135  (-0.005050 -0.003176  0.009986)
127:   3197.18   0.002881   14.56  0.000281  ( 0.010815 -0.010253 -0.007691)
128:   3197.75   0.001241    6.27  0.000121  ( 0.002356 -0.000117 -0.010748)
129:   3202.88   0.000840    4.24  0.000082  ( 0.005948 -0.003178 -0.006028)
130:   3212.69   0.005263   26.59  0.000511  (-0.012539 -0.012084 -0.014420)
131:   3223.07   0.000058    0.29  0.000006  (-0.002172  0.000943  0.000203)
132:   3229.77   0.000640    3.24  0.000062  ( 0.006965  0.001823 -0.003168)
133:   3241.45   0.003321   16.79  0.000320  (-0.012055  0.008840 -0.009813)
134:   3241.67   0.000096    0.49  0.000009  (-0.002524  0.000832 -0.001480)
135:   3244.38   0.001208    6.11  0.000116  (-0.010048  0.003564  0.001593)
136:   3259.86   0.002564   12.96  0.000245  ( 0.002081 -0.003757 -0.015067)
137:   3268.83   0.006539   33.05  0.000624  ( 0.018942  0.001034  0.016260)

--------------------------
THERMOCHEMISTRY AT 298.15K
--------------------------

Temperature         ... 298.15 K
Pressure            ... 1.00 atm
Total Mass          ... 356.38 AMU

Throughout the following assumptions are being made:
  (1) The electronic state is orbitally nondegenerate
  (2) There are no thermally accessible electronically excited states
  (3) Hindered rotations indicated by low frequency modes are not
      treated as such but are treated as vibrations and this may
      cause some error
  (4) All equations used are the standard statistical mechanics
      equations for an ideal gas
  (5) All vibrations are strictly harmonic

freq.      21.95  E(vib)   ...       0.56
freq.      29.25  E(vib)   ...       0.55
freq.      32.86  E(vib)   ...       0.55
freq.      38.23  E(vib)   ...       0.54
freq.      51.36  E(vib)   ...       0.52
freq.      68.43  E(vib)   ...       0.50
freq.      70.26  E(vib)   ...       0.50
freq.      86.83  E(vib)   ...       0.48
freq.      99.95  E(vib)   ...       0.46
freq.     105.65  E(vib)   ...       0.45
freq.     122.82  E(vib)   ...       0.43
freq.     151.92  E(vib)   ...       0.40
freq.     157.07  E(vib)   ...       0.40
freq.     161.52  E(vib)   ...       0.39
freq.     172.10  E(vib)   ...       0.38
freq.     181.04  E(vib)   ...       0.37
freq.     205.42  E(vib)   ...       0.35
freq.     210.58  E(vib)   ...       0.34
freq.     215.29  E(vib)   ...       0.34
freq.     248.03  E(vib)   ...       0.31
freq.     267.00  E(vib)   ...       0.29
freq.     282.65  E(vib)   ...       0.28
freq.     286.92  E(vib)   ...       0.27
freq.     314.57  E(vib)   ...       0.25
freq.     338.76  E(vib)   ...       0.23
freq.     358.55  E(vib)   ...       0.22
freq.     361.32  E(vib)   ...       0.22
freq.     412.47  E(vib)   ...       0.19
freq.     443.10  E(vib)   ...       0.17
freq.     478.52  E(vib)   ...       0.15
freq.     483.40  E(vib)   ...       0.15
freq.     498.25  E(vib)   ...       0.14
freq.     530.22  E(vib)   ...       0.13
freq.     572.30  E(vib)   ...       0.11
freq.     574.80  E(vib)   ...       0.11
freq.     598.57  E(vib)   ...       0.10
freq.     613.14  E(vib)   ...       0.10
freq.     637.16  E(vib)   ...       0.09
freq.     657.65  E(vib)   ...       0.08
freq.     685.46  E(vib)   ...       0.07
freq.     699.20  E(vib)   ...       0.07
freq.     713.67  E(vib)   ...       0.07
freq.     734.39  E(vib)   ...       0.06
freq.     762.40  E(vib)   ...       0.06
freq.     771.62  E(vib)   ...       0.05
freq.     776.58  E(vib)   ...       0.05
freq.     785.98  E(vib)   ...       0.05
freq.     803.16  E(vib)   ...       0.05
freq.     811.28  E(vib)   ...       0.05
freq.     849.27  E(vib)   ...       0.04
freq.     856.56  E(vib)   ...       0.04
freq.     865.28  E(vib)   ...       0.04
freq.     880.92  E(vib)   ...       0.04
freq.     882.21  E(vib)   ...       0.04
freq.     916.67  E(vib)   ...       0.03
freq.     966.00  E(vib)   ...       0.03
freq.     976.48  E(vib)   ...       0.03
freq.     990.93  E(vib)   ...       0.02
freq.    1007.64  E(vib)   ...       0.02
freq.    1013.84  E(vib)   ...       0.02
freq.    1017.33  E(vib)   ...       0.02
freq.    1030.39  E(vib)   ...       0.02
freq.    1046.92  E(vib)   ...       0.02
freq.    1050.42  E(vib)   ...       0.02
freq.    1062.69  E(vib)   ...       0.02
freq.    1068.36  E(vib)   ...       0.02
freq.    1085.14  E(vib)   ...       0.02
freq.    1085.57  E(vib)   ...       0.02
freq.    1101.17  E(vib)   ...       0.02
freq.    1127.00  E(vib)   ...       0.01
freq.    1133.84  E(vib)   ...       0.01
freq.    1165.49  E(vib)   ...       0.01
freq.    1170.84  E(vib)   ...       0.01
freq.    1171.11  E(vib)   ...       0.01
freq.    1175.29  E(vib)   ...       0.01
freq.    1177.18  E(vib)   ...       0.01
freq.    1196.75  E(vib)   ...       0.01
freq.    1201.85  E(vib)   ...       0.01
freq.    1206.47  E(vib)   ...       0.01
freq.    1219.41  E(vib)   ...       0.01
freq.    1225.96  E(vib)   ...       0.01
freq.    1235.23  E(vib)   ...       0.01
freq.    1260.43  E(vib)   ...       0.01
freq.    1267.66  E(vib)   ...       0.01
freq.    1292.11  E(vib)   ...       0.01
freq.    1294.15  E(vib)   ...       0.01
freq.    1314.74  E(vib)   ...       0.01
freq.    1328.85  E(vib)   ...       0.01
freq.    1351.19  E(vib)   ...       0.01
freq.    1370.11  E(vib)   ...       0.01
freq.    1380.25  E(vib)   ...       0.01
freq.    1390.45  E(vib)   ...       0.00
freq.    1422.18  E(vib)   ...       0.00
freq.    1427.65  E(vib)   ...       0.00
freq.    1460.94  E(vib)   ...       0.00
freq.    1464.72  E(vib)   ...       0.00
freq.    1465.16  E(vib)   ...       0.00
freq.    1470.62  E(vib)   ...       0.00
freq.    1471.49  E(vib)   ...       0.00
freq.    1472.80  E(vib)   ...       0.00
freq.    1475.96  E(vib)   ...       0.00
freq.    1483.55  E(vib)   ...       0.00
freq.    1497.19  E(vib)   ...       0.00
freq.    1527.22  E(vib)   ...       0.00
freq.    1532.18  E(vib)   ...       0.00
freq.    1535.86  E(vib)   ...       0.00
freq.    1644.12  E(vib)   ...       0.00
freq.    1645.16  E(vib)   ...       0.00
freq.    1649.24  E(vib)   ...       0.00
freq.    1661.97  E(vib)   ...       0.00
freq.    1695.54  E(vib)   ...       0.00
freq.    1788.59  E(vib)   ...       0.00
freq.    3036.60  E(vib)   ...       0.00
freq.    3076.44  E(vib)   ...       0.00
freq.    3108.29  E(vib)   ...       0.00
freq.    3116.25  E(vib)   ...       0.00
freq.    3154.00  E(vib)   ...       0.00
freq.    3162.73  E(vib)   ...       0.00
freq.    3164.50  E(vib)   ...       0.00
freq.    3191.01  E(vib)   ...       0.00
freq.    3196.42  E(vib)   ...       0.00
freq.    3197.18  E(vib)   ...       0.00
freq.    3197.75  E(vib)   ...       0.00
freq.    3202.88  E(vib)   ...       0.00
freq.    3212.69  E(vib)   ...       0.00
freq.    3223.07  E(vib)   ...       0.00
freq.    3229.77  E(vib)   ...       0.00
freq.    3241.45  E(vib)   ...       0.00
freq.    3241.67  E(vib)   ...       0.00
freq.    3244.38  E(vib)   ...       0.00
freq.    3259.86  E(vib)   ...       0.00
freq.    3268.83  E(vib)   ...       0.00

------------
INNER ENERGY
------------

The inner energy is: U= E(el) + E(ZPE) + E(vib) + E(rot) + E(trans)
    E(el)   - is the total energy from the electronic structure calculation
              = E(kin-el) + E(nuc-el) + E(el-el) + E(nuc-nuc)
    E(ZPE)  - the the zero temperature vibrational energy from the frequency calculation
    E(vib)  - the the finite temperature correction to E(ZPE) due to population
              of excited vibrational states
    E(rot)  - is the rotational thermal energy

Rotational constants in cm-1:     0.009114     0.006884     0.005442

                             ****ORCA TERMINATED NORMALLY****
TOTAL RUN TIME: 0 days 2 hours 5 minutes 29 seconds 457 msec
