                         Program Version 5.0.4 -  RELEASE  -
|  1> %pal nprocs 24 end
|  2> ! PBE0 D3BJ def2-TZVP TightSCF OPT FREQ TightOpt
|  3> ! CPCM(dmso)
|  4> %scf
|  5> MaxIter 800
|  6> end
|  7>
|  8> %geom
|  9> MaxIter 800
| 10> MaxStep 0.15
| 11> end
| 12>
| 13> *xyz 0 1
| 14> C      -0.85108600     -3.51057900      2.23582900
| 15> C       0.04044100     -2.66804500      2.89919000
| 16> C       0.12057000     -1.34262500      2.52169900
| 17> N      -0.65396800     -0.86333300      1.52661300
| 18> C      -1.52843500     -1.65839200      0.87637700
| 19> C      -1.64631700     -2.99323900      1.21648500
| 20> C      -0.46884100      0.52194000      1.07932700
| 21> C      -1.76796700      1.29918300      1.23327000
| 22> O      -2.86548000      0.80471800      1.30456800
| 23> O      -1.50334400      2.58908800      1.31784700
| 24> C      -2.61189000      3.48059200      1.23722500
| 25> H      -0.92391100     -4.56456600      2.51282700
| 26> H       0.80173500     -0.63280600      2.99198700
| 27> H      -2.11637600     -1.19727100      0.08636700
| 28> H      -2.35626000     -3.61642700      0.67173300
| 29> H       0.27244800      0.98043700      1.74550900
| 30> H      -2.21201800      4.48208200      1.42802200
| 31> H      -3.37535200      3.22144800      1.98299000
| 32> H       0.68070200     -3.02968700      3.70451900
| 33> C       0.29888500      1.89453100     -0.93326900
| 34> C       0.10164000      0.51766100     -0.38069600
| 35> C       1.31304400     -0.38649900     -0.41466300
| 36> C       2.46672400     -0.11467400      0.32206200
| 37> C       3.55067200     -0.99314900      0.33319200
| 38> C       3.47649300     -2.17433400     -0.39966900
| 39> C       2.33086100     -2.48175000     -1.13348500
| 40> C       1.24749100     -1.59524300     -1.14220200
| 41> O       0.09802400     -1.83759400     -1.80650800
| 42> C      -0.08134300     -3.07876600     -2.44718700
| 43> N      -0.80083200      2.49512700     -1.47418000
| 44> O      -0.73659900      3.65183400     -1.93025300
| 45> H      -0.67571600      0.06520200     -1.00761100
| 46> H       2.51809200      0.80730100      0.90556800
| 47> H       4.44313200     -0.75498500      0.91588100
| 48> H       4.31417300     -2.87645200     -0.40087700
| 49> H       2.28481000     -3.41604600     -1.69352300
| 50> H      -1.09378300     -3.06635900     -2.86887300
| 51> H       0.00451700     -3.91443900     -1.73264400
| 52> H       0.64740300     -3.22404600     -3.26157500
| 53> O      -1.89203200      1.86718700     -1.49519300
| 54> H      -3.03620000      3.42334100      0.22463800
| 55> C       1.47519500      2.65347800     -0.81436300
| 56> C       2.51204300      3.28572700     -0.67611500
| 57> H       3.42807100      3.84120500     -0.57806100
| 58> *
| 59>
| 60>                          ****END OF INPUT****
 Total Charge           Charge          ....    0
 Multiplicity           Mult            ....    1
 Number of Electrons    NEL             ....  186
Dispersion correction           -0.058602325
FINAL SINGLE POINT ENERGY     -1219.435680775445
Dispersion correction            ... done
Dispersion correction           -0.058138598
FINAL SINGLE POINT ENERGY     -1219.437084211419
Dispersion correction            ... done
Dispersion correction           -0.058511540
FINAL SINGLE POINT ENERGY     -1219.437570882646
Dispersion correction            ... done
FINAL SINGLE POINT ENERGY     -1219.438472729971
FINAL SINGLE POINT ENERGY     -1219.438175587012
FINAL SINGLE POINT ENERGY     -1219.438693652051
FINAL SINGLE POINT ENERGY     -1219.438727958666
FINAL SINGLE POINT ENERGY     -1219.438743439725
FINAL SINGLE POINT ENERGY     -1219.438763009167
FINAL SINGLE POINT ENERGY     -1219.438784566187
FINAL SINGLE POINT ENERGY     -1219.438854369258
FINAL SINGLE POINT ENERGY     -1219.438862023954
FINAL SINGLE POINT ENERGY     -1219.438878106492
FINAL SINGLE POINT ENERGY     -1219.438884767965
FINAL SINGLE POINT ENERGY     -1219.438887330927
FINAL SINGLE POINT ENERGY     -1219.438890788809
FINAL SINGLE POINT ENERGY     -1219.438893008457
Dispersion correction           -0.057272354
FINAL SINGLE POINT ENERGY     -1219.438893103345
Dispersion correction            ... done
Dispersion correction           -0.057269267
FINAL SINGLE POINT ENERGY     -1219.438893714080
Dispersion correction            ... done
                    ***********************HURRAY********************

CARTESIAN COORDINATES (ANGSTROEM)
---------------------------------
  C     -0.919560   -3.372440    2.666909
  C     -0.056606   -2.470003    3.270134
  C      0.057040   -1.202905    2.752285
  N     -0.657738   -0.837192    1.675698
  C     -1.500905   -1.695206    1.077281
  C     -1.649396   -2.974564    1.557792
  C     -0.471371    0.507880    1.118437
  C     -1.767461    1.294967    1.249524
  O     -2.862119    0.801771    1.341659
  O     -1.505050    2.585912    1.280627
  C     -2.637886    3.462952    1.285207
  H     -1.019356   -4.378158    3.056269
  H      0.713886   -0.454021    3.171844
  H     -2.037508   -1.329217    0.216297
  H     -2.331540   -3.646535    1.055278
  H      0.280085    1.002535    1.731304
  H     -2.226932    4.468350    1.307610
  H     -3.253111    3.279247    2.165575
  H      0.533114   -2.737995    4.135993
  C      0.263184    1.754306   -0.965664
  C      0.042610    0.409601   -0.348200
  C      1.254829   -0.488961   -0.407592
  C      2.357928   -0.296866    0.412104
  C      3.462092   -1.136160    0.356901
  C      3.462541   -2.193754   -0.536918
  C      2.371878   -2.415037   -1.366407
  C      1.269114   -1.567232   -1.306373
  O      0.171911   -1.721773   -2.080110
  C      0.125787   -2.821348   -2.969282
  N     -0.773140    2.329187   -1.611822
  O     -0.643091    3.453448   -2.158911
  H     -0.752860   -0.051373   -0.931171
  H      2.359989    0.531099    1.111894
  H      4.310164   -0.962552    1.008171
  H      4.314205   -2.862230   -0.594094
  H      2.385433   -3.248665   -2.055333
  H     -0.836669   -2.759088   -3.472752
  H      0.194960   -3.769345   -2.428074
  H      0.929104   -2.765679   -3.709257
  O     -1.888099    1.737275   -1.655077
  H     -3.223069    3.307433    0.379054
  C      1.456210    2.473176   -0.839081
  C      2.502437    3.064606   -0.694668
  H      3.424383    3.585333   -0.570283

 Multiplicity           Mult            ....    1
 Number of Electrons    NEL             ....  186
 Basis Dimension        Dim             ....  914

ORBITAL ENERGIES
----------------

  NO   OCC          E(Eh)            E(eV)
   0   2.0000     -19.271298      -524.3987
   1   2.0000     -19.246092      -523.7128
   2   2.0000     -19.212303      -522.7933
   3   2.0000     -19.180732      -521.9343
   4   2.0000     -19.177428      -521.8443
   5   2.0000     -14.564070      -396.3085
   6   2.0000     -14.516112      -395.0035
   7   2.0000     -10.372057      -282.2380
   8   2.0000     -10.314921      -280.6833
   9   2.0000     -10.313462      -280.6436
  10   2.0000     -10.308599      -280.5112
  11   2.0000     -10.292228      -280.0658
  12   2.0000     -10.280437      -279.7449
  13   2.0000     -10.272415      -279.5266
  14   2.0000     -10.269545      -279.4485
  15   2.0000     -10.269435      -279.4455
  16   2.0000     -10.266835      -279.3748
  17   2.0000     -10.261508      -279.2298
  18   2.0000     -10.252044      -278.9723
  19   2.0000     -10.240301      -278.6528
  20   2.0000     -10.230338      -278.3817
  21   2.0000     -10.229706      -278.3645
  22   2.0000     -10.228022      -278.3186
  23   2.0000     -10.225986      -278.2632
  24   2.0000     -10.221677      -278.1460
  25   2.0000     -10.210280      -277.8359
  26   2.0000      -1.197156       -32.5763
  27   2.0000      -1.163246       -31.6535
  28   2.0000      -1.108725       -30.1699
  29   2.0000      -1.087400       -29.5897
  30   2.0000      -1.068121       -29.0650
  31   2.0000      -1.013558       -27.5803
  32   2.0000      -0.910957       -24.7884
  33   2.0000      -0.890636       -24.2354
  34   2.0000      -0.867779       -23.6135
  35   2.0000      -0.847340       -23.0573
  36   2.0000      -0.822502       -22.3814
  37   2.0000      -0.797375       -21.6977
  38   2.0000      -0.778865       -21.1940
  39   2.0000      -0.761437       -20.7198
  40   2.0000      -0.754624       -20.5344
  41   2.0000      -0.726389       -19.7661
  42   2.0000      -0.718868       -19.5614
  43   2.0000      -0.707425       -19.2500
  44   2.0000      -0.681532       -18.5454
  45   2.0000      -0.633788       -17.2463
  46   2.0000      -0.621885       -16.9224
  47   2.0000      -0.615127       -16.7385
  48   2.0000      -0.611091       -16.6286
  49   2.0000      -0.579428       -15.7670
  50   2.0000      -0.569707       -15.5025
  51   2.0000      -0.557907       -15.1814
  52   2.0000      -0.552435       -15.0325
  53   2.0000      -0.539959       -14.6930
  54   2.0000      -0.538227       -14.6459
  55   2.0000      -0.530303       -14.4303
  56   2.0000      -0.521964       -14.2034
  57   2.0000      -0.512981       -13.9589
  58   2.0000      -0.508429       -13.8351
  59   2.0000      -0.503892       -13.7116
  60   2.0000      -0.499164       -13.5829
  61   2.0000      -0.497647       -13.5417
  62   2.0000      -0.494183       -13.4474
  63   2.0000      -0.487772       -13.2729
  64   2.0000      -0.484253       -13.1772
  65   2.0000      -0.479441       -13.0463
  66   2.0000      -0.459124       -12.4934
  67   2.0000      -0.451776       -12.2935
  68   2.0000      -0.441018       -12.0007
  69   2.0000      -0.432473       -11.7682
  70   2.0000      -0.428682       -11.6650
  71   2.0000      -0.419241       -11.4081
  72   2.0000      -0.417949       -11.3730
  73   2.0000      -0.414126       -11.2689
  74   2.0000      -0.400132       -10.8882
  75   2.0000      -0.394372       -10.7314
  76   2.0000      -0.386184       -10.5086
  77   2.0000      -0.382714       -10.4142
  78   2.0000      -0.364797        -9.9266
  79   2.0000      -0.352436        -9.5903
  80   2.0000      -0.345909        -9.4127
  81   2.0000      -0.342408        -9.3174
  82   2.0000      -0.336618        -9.1598
  83   2.0000      -0.327001        -8.8982
  84   2.0000      -0.323336        -8.7984
  85   2.0000      -0.310660        -8.4535
  86   2.0000      -0.304146        -8.2762
  87   2.0000      -0.295199        -8.0328
  88   2.0000      -0.287246        -7.8164
  89   2.0000      -0.271429        -7.3860
  90   2.0000      -0.257462        -7.0059
  91   2.0000      -0.241557        -6.5731
  92   2.0000      -0.201839        -5.4923
  93   0.0000      -0.087241        -2.3739
  94   0.0000      -0.052354        -1.4246
  95   0.0000      -0.024858        -0.6764
  96   0.0000      -0.011853        -0.3225
  97   0.0000       0.000496         0.0135

MULLIKEN ATOMIC CHARGES
-----------------------
   0 C :   -0.073245
   1 C :   -0.129512
   2 C :   -0.022074
   3 N :    0.185929
   4 C :   -0.016346
   5 C :   -0.140032
   6 C :   -0.064756
   7 C :    0.290962
   8 O :   -0.374403
   9 O :   -0.206388
  10 C :   -0.258214
  11 H :    0.190522
  12 H :    0.205988
  13 H :    0.200875
  14 H :    0.192321
  15 H :    0.173850
  16 H :    0.165633
  17 H :    0.158008
  18 H :    0.193552
  19 C :   -0.281418
  20 C :    0.032190
  21 C :    0.135379
  22 C :   -0.256384
  23 C :   -0.189106
  24 C :   -0.157851
  25 C :   -0.301457
  26 C :    0.247364
  27 O :   -0.268834
  28 C :   -0.279722
  29 N :    0.448162
  30 O :   -0.529909
  31 H :    0.128884
  32 H :    0.159391
  33 H :    0.146655
  34 H :    0.151093
  35 H :    0.163484
  36 H :    0.162616
  37 H :    0.149958
  38 H :    0.152050
  39 O :   -0.538650
  40 H :    0.150170
  41 C :   -0.003480
  42 C :   -0.300923
  43 H :    0.207668
Sum of atomic charges:   -0.0000000

LOEWDIN ATOMIC CHARGES
----------------------
   0 C :   -0.050880
   1 C :   -0.094740
   2 C :   -0.073747
   3 N :    0.342097
   4 C :   -0.075469
   5 C :   -0.094174
   6 C :   -0.141767
   7 C :   -0.482247
   8 O :    0.102587
   9 O :    0.288383
  10 C :   -0.296694
  11 H :    0.172886
  12 H :    0.177664
  13 H :    0.176404
  14 H :    0.175061
  15 H :    0.188833
  16 H :    0.124162
  17 H :    0.120831
  18 H :    0.175044
  19 C :   -0.253964
  20 C :   -0.165667
  21 C :   -0.102550
  22 C :   -0.106550
  23 C :   -0.165710
  24 C :   -0.145544
  25 C :   -0.140682
  26 C :   -0.230094
  27 O :    0.246700
  28 C :   -0.326002
  29 N :   -0.045544
  30 O :   -0.222843
  31 H :    0.181043
  32 H :    0.162146
  33 H :    0.152165
  34 H :    0.154555
  35 H :    0.160246
  36 H :    0.121967
  37 H :    0.117252
  38 H :    0.117651
  39 O :   -0.214104
  40 H :    0.117901
  41 C :   -0.139220
  42 C :   -0.142071
  43 H :    0.134686

  Mayer bond orders larger than 0.100000
B(  0-C ,  1-C ) :   1.4032 B(  0-C ,  5-C ) :   1.4049 B(  0-C , 11-H ) :   0.9406
B(  1-C ,  2-C ) :   1.4484 B(  1-C , 18-H ) :   0.9430 B(  2-C ,  3-N ) :   1.2817
B(  2-C , 12-H ) :   0.9287 B(  3-N ,  4-C ) :   1.2641 B(  3-N ,  6-C ) :   0.8609
B(  4-C ,  5-C ) :   1.4426 B(  4-C , 13-H ) :   0.9332 B(  5-C , 14-H ) :   0.9440
B(  6-C ,  7-C ) :   0.9692 B(  6-C , 15-H ) :   0.9225 B(  6-C , 20-C ) :   0.9517
B(  7-C ,  8-O ) :   1.9702 B(  7-C ,  9-O ) :   1.2818 B(  9-O , 10-C ) :   0.8798
B( 10-C , 16-H ) :   0.9639 B( 10-C , 17-H ) :   0.9622 B( 10-C , 40-H ) :   0.9646
B( 19-C , 20-C ) :   1.0730 B( 19-C , 29-N ) :   1.4090 B( 19-C , 41-C ) :   1.4084
B( 20-C , 21-C ) :   0.8218 B( 20-C , 31-H ) :   0.9080 B( 21-C , 22-C ) :   1.3475
B( 21-C , 26-C ) :   1.3121 B( 22-C , 23-C ) :   1.3973 B( 22-C , 32-H ) :   0.9732
B( 23-C , 24-C ) :   1.4094 B( 23-C , 33-H ) :   0.9804 B( 24-C , 25-C ) :   1.3932
B( 24-C , 34-H ) :   0.9690 B( 25-C , 26-C ) :   1.3580 B( 25-C , 35-H ) :   0.9617
B( 26-C , 27-O ) :   1.1098 B( 27-O , 28-C ) :   0.9424 B( 28-C , 36-H ) :   0.9639
B( 28-C , 37-H ) :   0.9626 B( 28-C , 38-H ) :   0.9619 B( 29-N , 30-O ) :   1.4287
B( 29-N , 39-O ) :   1.3442 B( 30-O , 41-C ) :   0.1149 B( 41-C , 42-C ) :   2.5820
B( 42-C , 43-H ) :   0.9900

Dispersion correction           -0.057269066
FINAL SINGLE POINT ENERGY     -1219.438893601870

DIPOLE MOMENT
-------------
                                X             Y             Z
Electronic contribution:     -2.73703       4.81333       2.10260
Nuclear contribution   :      3.82120     -11.96682       3.74905
                        -----------------------------------------
Total Dipole Moment    :      1.08417      -7.15349       5.85165
                        -----------------------------------------
Magnitude (a.u.)       :      9.30535
Magnitude (Debye)      :     23.65233

Dispersion correction in the Hessian             ... done   (      0.7 sec)

VIBRATIONAL FREQUENCIES
-----------------------

Scaling factor for frequencies =  1.000000000  (already applied!)

   0:         0.00 cm**-1
   1:         0.00 cm**-1
   2:         0.00 cm**-1
   3:         0.00 cm**-1
   4:         0.00 cm**-1
   5:         0.00 cm**-1
   6:        14.27 cm**-1
   7:        25.38 cm**-1
   8:        41.69 cm**-1
   9:        50.20 cm**-1
  10:        67.28 cm**-1
  11:        73.03 cm**-1
  12:        80.61 cm**-1
  13:        87.69 cm**-1
  14:        97.18 cm**-1
  15:       102.60 cm**-1
  16:       122.09 cm**-1
  17:       137.66 cm**-1
  18:       145.30 cm**-1
  19:       153.46 cm**-1
  20:       169.72 cm**-1
  21:       180.82 cm**-1
  22:       221.40 cm**-1
  23:       234.44 cm**-1
  24:       237.64 cm**-1
  25:       259.05 cm**-1
  26:       268.92 cm**-1
  27:       285.31 cm**-1
  28:       309.65 cm**-1
  29:       318.28 cm**-1
  30:       330.33 cm**-1
  31:       366.38 cm**-1
  32:       411.52 cm**-1
  33:       439.70 cm**-1
  34:       465.10 cm**-1
  35:       490.07 cm**-1
  36:       494.24 cm**-1
  37:       502.55 cm**-1
  38:       517.63 cm**-1
  39:       547.96 cm**-1
  40:       567.88 cm**-1
  41:       573.22 cm**-1
  42:       585.05 cm**-1
  43:       618.41 cm**-1
  44:       638.59 cm**-1
  45:       657.16 cm**-1
  46:       697.06 cm**-1
  47:       707.04 cm**-1
  48:       725.67 cm**-1
  49:       732.48 cm**-1
  50:       755.36 cm**-1
  51:       768.81 cm**-1
  52:       782.07 cm**-1
  53:       785.16 cm**-1
  54:       800.23 cm**-1
  55:       813.32 cm**-1
  56:       840.29 cm**-1
  57:       872.56 cm**-1
  58:       874.11 cm**-1
  59:       882.15 cm**-1
  60:       908.45 cm**-1
  61:       960.20 cm**-1
  62:       967.60 cm**-1
  63:       983.22 cm**-1
  64:       990.21 cm**-1
  65:      1010.41 cm**-1
  66:      1025.26 cm**-1
  67:      1050.67 cm**-1
  68:      1052.96 cm**-1
  69:      1063.03 cm**-1
  70:      1073.52 cm**-1
  71:      1085.18 cm**-1
  72:      1086.28 cm**-1
  73:      1129.05 cm**-1
  74:      1134.45 cm**-1
  75:      1154.92 cm**-1
  76:      1169.68 cm**-1
  77:      1171.20 cm**-1
  78:      1174.88 cm**-1
  79:      1175.44 cm**-1
  80:      1195.40 cm**-1
  81:      1206.42 cm**-1
  82:      1213.36 cm**-1
  83:      1221.18 cm**-1
  84:      1233.83 cm**-1
  85:      1242.19 cm**-1
  86:      1273.03 cm**-1
  87:      1296.33 cm**-1
  88:      1312.41 cm**-1
  89:      1314.38 cm**-1
  90:      1327.57 cm**-1
  91:      1351.95 cm**-1
  92:      1369.45 cm**-1
  93:      1379.73 cm**-1
  94:      1389.23 cm**-1
  95:      1406.04 cm**-1
  96:      1421.15 cm**-1
  97:      1439.12 cm**-1
  98:      1465.32 cm**-1
  99:      1466.12 cm**-1
 100:      1467.85 cm**-1
 101:      1473.10 cm**-1
 102:      1473.96 cm**-1
 103:      1484.18 cm**-1
 104:      1497.42 cm**-1
 105:      1528.62 cm**-1
 106:      1536.63 cm**-1
 107:      1538.46 cm**-1
 108:      1645.82 cm**-1
 109:      1647.80 cm**-1
 110:      1663.90 cm**-1
 111:      1696.31 cm**-1
 112:      1796.32 cm**-1
 113:      2171.08 cm**-1
 114:      3037.24 cm**-1
 115:      3075.98 cm**-1
 116:      3108.40 cm**-1
 117:      3132.34 cm**-1
 118:      3152.23 cm**-1
 119:      3163.37 cm**-1
 120:      3166.55 cm**-1
 121:      3191.70 cm**-1
 122:      3195.72 cm**-1
 123:      3198.59 cm**-1
 124:      3214.68 cm**-1
 125:      3223.15 cm**-1
 126:      3231.78 cm**-1
 127:      3240.38 cm**-1
 128:      3243.63 cm**-1
 129:      3252.63 cm**-1
 130:      3281.62 cm**-1
 131:      3454.02 cm**-1

IR SPECTRUM
-----------

 Mode   freq       eps      Int      T**2         TX        TY        TZ
       cm**-1   L/(mol*cm) km/mol    a.u.
----------------------------------------------------------------------------
  6:     14.27   0.000573    2.90  0.012537  ( 0.020886 -0.082850 -0.072367)
  7:     25.38   0.000278    1.41  0.003423  ( 0.030756  0.038509 -0.031529)
  8:     41.69   0.000379    1.92  0.002838  (-0.017430  0.031690  0.039118)
  9:     50.20   0.000455    2.30  0.002831  ( 0.045657  0.026495 -0.006670)
 10:     67.28   0.000563    2.85  0.002612  ( 0.042320 -0.025284 -0.013479)
 11:     73.03   0.000815    4.12  0.003481  ( 0.019350 -0.015473 -0.053550)
 12:     80.61   0.002641   13.34  0.010223  (-0.016956  0.011242  0.099039)
 13:     87.69   0.000737    3.72  0.002622  (-0.049521  0.008606  0.009785)
 14:     97.18   0.001526    7.71  0.004900  ( 0.023654  0.038550 -0.053429)
 15:    102.60   0.000117    0.59  0.000356  ( 0.012029  0.010950  0.009539)
 16:    122.09   0.001654    8.36  0.004228  ( 0.004880 -0.061028  0.021900)
 17:    137.66   0.000954    4.82  0.002162  ( 0.004926 -0.007548  0.045620)
 18:    145.30   0.000664    3.36  0.001427  ( 0.032484  0.019162 -0.002072)
 19:    153.46   0.000178    0.90  0.000362  ( 0.006635 -0.005297  0.017031)
 20:    169.72   0.000076    0.39  0.000140  (-0.006261 -0.006530 -0.007634)
 21:    180.82   0.000554    2.80  0.000956  (-0.021422 -0.001678  0.022231)
 22:    221.40   0.001699    8.59  0.002395  ( 0.022553  0.029873 -0.031525)
 23:    234.44   0.001129    5.71  0.001503  ( 0.003916  0.035549  0.014971)
 24:    237.64   0.003452   17.45  0.004534  ( 0.016421 -0.038055  0.053063)
 25:    259.05   0.001058    5.35  0.001274  (-0.028496 -0.012869 -0.017228)
 26:    268.92   0.002673   13.51  0.003102  (-0.004889 -0.054959 -0.007608)
 27:    285.31   0.001873    9.46  0.002048  (-0.004223  0.043624 -0.011293)
 28:    309.65   0.000128    0.64  0.000129  ( 0.011007  0.001584  0.002205)
 29:    318.28   0.000618    3.12  0.000605  ( 0.005624 -0.015372 -0.018373)
 30:    330.33   0.000260    1.31  0.000245  (-0.006444  0.014269  0.000121)
 31:    366.38   0.004057   20.50  0.003456  ( 0.026578 -0.052432  0.000268)
 32:    411.52   0.000241    1.22  0.000183  ( 0.004214 -0.012065  0.004389)
 33:    439.70   0.001127    5.70  0.000800  (-0.003289 -0.011600  0.025582)
 34:    465.10   0.001028    5.20  0.000690  ( 0.001904  0.025037 -0.007701)
 35:    490.07   0.001553    7.85  0.000989  ( 0.004744 -0.027488 -0.014526)
 36:    494.24   0.018196   91.96  0.011489  (-0.038551  0.042779  0.090403)
 37:    502.55   0.000103    0.52  0.000064  (-0.002701 -0.005961  0.004600)
 38:    517.63   0.011132   56.25  0.006711  ( 0.038831 -0.021741 -0.068778)
 39:    547.96   0.001746    8.83  0.000995  (-0.030088 -0.004334  0.008395)
 40:    567.88   0.003565   18.02  0.001959  ( 0.043114  0.009223  0.003901)
 41:    573.22   0.001336    6.75  0.000727  ( 0.002962 -0.026778  0.001152)
 42:    585.05   0.002496   12.61  0.001331  (-0.009268  0.020605 -0.028651)
 43:    618.41   0.005640   28.50  0.002846  (-0.005370  0.052096 -0.010171)
 44:    638.59   0.000689    3.48  0.000337  ( 0.013671  0.005494 -0.010929)
 45:    657.16   0.000502    2.54  0.000238  ( 0.006350  0.011372 -0.008294)
 46:    697.06   0.015059   76.10  0.006742  ( 0.057462 -0.034727 -0.047263)
 47:    707.04   0.014535   73.45  0.006415  ( 0.026209 -0.060478  0.045505)
 48:    725.67   0.007079   35.78  0.003044  ( 0.050531  0.008370 -0.020517)
 49:    732.48   0.012207   61.69  0.005201  (-0.033870 -0.023547  0.059152)
 50:    755.36   0.005533   27.96  0.002286  ( 0.017258 -0.043476 -0.009885)
 51:    768.81   0.015299   77.32  0.006210  ( 0.023199  0.051435 -0.055012)
 52:    782.07   0.008858   44.77  0.003535  ( 0.045729 -0.004779 -0.037690)
 53:    785.16   0.001469    7.42  0.000584  (-0.004998 -0.023339  0.003759)
 54:    800.23   0.000764    3.86  0.000298  (-0.011024  0.012005  0.005691)
 55:    813.32   0.005033   25.43  0.001931  ( 0.038805 -0.000155  0.020620)
 56:    840.29   0.001169    5.91  0.000434  ( 0.009873 -0.014477  0.011279)
 57:    872.56   0.001811    9.15  0.000648  ( 0.010074  0.019488 -0.012899)
 58:    874.11   0.001348    6.81  0.000481  ( 0.008595  0.014434 -0.014110)
 59:    882.15   0.000213    1.08  0.000075  ( 0.002172  0.007972  0.002652)
 60:    908.45   0.005109   25.82  0.001755  (-0.030258  0.020624 -0.020346)
 61:    960.20   0.003249   16.42  0.001056  (-0.010383  0.021878 -0.021665)
 62:    967.60   0.001861    9.41  0.000600  (-0.023678  0.006093 -0.001586)
 63:    983.22   0.002358   11.92  0.000749  ( 0.010115 -0.020642  0.014838)
 64:    990.21   0.000151    0.76  0.000048  ( 0.005862 -0.003627 -0.000000)
 65:   1010.41   0.000076    0.39  0.000024  ( 0.001058 -0.001103  0.004612)
 66:   1025.26   0.009234   46.67  0.002811  ( 0.042121 -0.003156 -0.032039)
 67:   1050.67   0.000065    0.33  0.000019  (-0.003358  0.000002  0.002814)
 68:   1052.96   0.003160   15.97  0.000937  (-0.018853  0.024032 -0.001914)
 69:   1063.03   0.000936    4.73  0.000275  (-0.009433  0.013604 -0.000799)
 70:   1073.52   0.010524   53.19  0.003059  (-0.006813  0.039413  0.038204)
 71:   1085.18   0.001180    5.96  0.000339  (-0.004947 -0.012212  0.012876)
 72:   1086.28   0.005982   30.23  0.001719  (-0.026822 -0.019124 -0.025168)
 73:   1129.05   0.009712   49.08  0.002684  ( 0.012358  0.036116  0.035032)
 74:   1134.45   0.006877   34.75  0.001892  (-0.034354  0.023914 -0.011816)
 75:   1154.92   0.032293  163.19  0.008726  ( 0.080885 -0.004311  0.046525)
 76:   1169.68   0.000364    1.84  0.000097  ( 0.001724  0.006859  0.006853)
 77:   1171.20   0.000270    1.36  0.000072  (-0.000845  0.006794 -0.005003)
 78:   1174.88   0.001605    8.11  0.000426  ( 0.014464 -0.001571  0.014653)
 79:   1175.44   0.001295    6.54  0.000344  ( 0.001973 -0.013901 -0.012108)
 80:   1195.40   0.003105   15.69  0.000811  (-0.020220  0.014545 -0.013794)
 81:   1206.42   0.008781   44.38  0.002271  (-0.019100  0.042996 -0.007611)
 82:   1213.36   0.004034   20.39  0.001038  (-0.002170 -0.029926 -0.011717)
 83:   1221.18   0.003177   16.06  0.000812  (-0.025646 -0.009900 -0.007497)
 84:   1233.83   0.017763   89.77  0.004493  (-0.012395  0.059569 -0.028119)
 85:   1242.19   0.012712   64.24  0.003193  (-0.012914  0.052636 -0.016004)
 86:   1273.03   0.056730  286.69  0.013907  ( 0.008931 -0.114270 -0.027736)
 87:   1296.33   0.079383  401.17  0.019110  (-0.089180 -0.055984 -0.089568)
 88:   1312.41   0.010122   51.15  0.002407  (-0.047156 -0.013382  0.002021)
 89:   1314.38   0.018153   91.74  0.004310  (-0.020998  0.061955 -0.005526)
 90:   1327.57   0.024188  122.23  0.005686  (-0.062786  0.034483 -0.023547)
 91:   1351.95   0.024781  125.23  0.005720  ( 0.010318 -0.055526 -0.050304)
 92:   1369.45   0.035515  179.48  0.008093  (-0.084100  0.030981 -0.007778)
 93:   1379.73   0.014246   71.99  0.003222  (-0.020538  0.052726 -0.004503)
 94:   1389.23   0.041241  208.42  0.009264  ( 0.090330  0.028819  0.016556)
 95:   1406.04   0.096833  489.35  0.021492  ( 0.033878  0.125273 -0.068195)
 96:   1421.15   0.004017   20.30  0.000882  (-0.020694 -0.015516 -0.014593)
 97:   1439.12   0.267853  1353.62  0.058082  (-0.194790  0.093732 -0.106552)
 98:   1465.32   0.006572   33.21  0.001400  ( 0.025204  0.009035  0.026129)
 99:   1466.12   0.004208   21.27  0.000896  (-0.012707  0.008492 -0.025733)
100:   1467.85   0.016513   83.45  0.003511  ( 0.047739 -0.034762 -0.004819)
101:   1473.10   0.008274   41.81  0.001753  ( 0.009031 -0.039953  0.008658)
102:   1473.96   0.002752   13.91  0.000583  ( 0.014121  0.012684 -0.014912)
103:   1484.18   0.004066   20.55  0.000855  (-0.022107 -0.001866 -0.019043)
104:   1497.42   0.020540  103.80  0.004281  (-0.048699 -0.014300 -0.041285)
105:   1528.62   0.018961   95.82  0.003871  (-0.039490 -0.026027 -0.040423)
106:   1536.63   0.002724   13.77  0.000553  (-0.008047 -0.018234  0.012490)
107:   1538.46   0.034919  176.46  0.007083  (-0.061854 -0.006508 -0.056699)
108:   1645.82   0.001433    7.24  0.000272  (-0.009288  0.002725 -0.013342)
109:   1647.80   0.005618   28.39  0.001064  ( 0.008643  0.017406  0.026199)
110:   1663.90   0.011869   59.98  0.002226  (-0.037911 -0.004719 -0.027685)
111:   1696.31   0.013077   66.09  0.002406  ( 0.001464  0.045829 -0.017419)
112:   1796.32   0.104480  528.00  0.018151  ( 0.109813  0.076281 -0.016523)
113:   2171.08   0.046668  235.84  0.006708  ( 0.075467  0.029669  0.011508)
114:   3037.24   0.012604   63.69  0.001295  (-0.003757 -0.027041 -0.023445)
115:   3075.98   0.005681   28.71  0.000576  ( 0.016850 -0.016785 -0.003261)
116:   3108.40   0.007543   38.12  0.000757  (-0.010907 -0.015142  0.020224)
117:   3132.34   0.001401    7.08  0.000140  (-0.003260  0.000039 -0.011357)
118:   3152.23   0.000679    3.43  0.000067  ( 0.003806 -0.004495  0.005701)
119:   3163.37   0.002576   13.02  0.000254  (-0.001653  0.000050  0.015854)
120:   3166.55   0.003906   19.74  0.000385  ( 0.017512 -0.001943  0.008628)
121:   3191.70   0.000042    0.21  0.000004  (-0.001661  0.000430  0.001068)
122:   3195.72   0.001726    8.72  0.000169  ( 0.005915  0.011543 -0.000581)
123:   3198.59   0.002826   14.28  0.000276  ( 0.012014 -0.010642 -0.004259)
124:   3214.68   0.002588   13.08  0.000251  (-0.012511 -0.001660 -0.009591)
125:   3223.15   0.000009    0.05  0.000001  ( 0.000287  0.000866  0.000268)
126:   3231.78   0.000433    2.19  0.000042  (-0.000800  0.005087  0.003908)
127:   3240.38   0.000316    1.60  0.000030  (-0.000622 -0.005303  0.001376)
128:   3243.63   0.000895    4.52  0.000086  ( 0.003327  0.008608  0.000983)
129:   3252.63   0.001987   10.04  0.000191  ( 0.008797  0.004767  0.009513)
130:   3281.62   0.002410   12.18  0.000229  ( 0.010079 -0.002495  0.011016)
131:   3454.02   0.047924  242.19  0.004330  (-0.058472 -0.028953 -0.008517)

--------------------------
THERMOCHEMISTRY AT 298.15K
--------------------------

Temperature         ... 298.15 K
Pressure            ... 1.00 atm
Total Mass          ... 354.36 AMU

Throughout the following assumptions are being made:
  (1) The electronic state is orbitally nondegenerate
  (2) There are no thermally accessible electronically excited states
  (3) Hindered rotations indicated by low frequency modes are not
      treated as such but are treated as vibrations and this may
      cause some error
  (4) All equations used are the standard statistical mechanics
      equations for an ideal gas
  (5) All vibrations are strictly harmonic

freq.      14.27  E(vib)   ...       0.57
freq.      25.38  E(vib)   ...       0.56
freq.      41.69  E(vib)   ...       0.53
freq.      50.20  E(vib)   ...       0.52
freq.      67.28  E(vib)   ...       0.50
freq.      73.03  E(vib)   ...       0.49
freq.      80.61  E(vib)   ...       0.48
freq.      87.69  E(vib)   ...       0.48
freq.      97.18  E(vib)   ...       0.46
freq.     102.60  E(vib)   ...       0.46
freq.     122.09  E(vib)   ...       0.44
freq.     137.66  E(vib)   ...       0.42
freq.     145.30  E(vib)   ...       0.41
freq.     153.46  E(vib)   ...       0.40
freq.     169.72  E(vib)   ...       0.38
freq.     180.82  E(vib)   ...       0.37
freq.     221.40  E(vib)   ...       0.33
freq.     234.44  E(vib)   ...       0.32
freq.     237.64  E(vib)   ...       0.32
freq.     259.05  E(vib)   ...       0.30
freq.     268.92  E(vib)   ...       0.29
freq.     285.31  E(vib)   ...       0.28
freq.     309.65  E(vib)   ...       0.26
freq.     318.28  E(vib)   ...       0.25
freq.     330.33  E(vib)   ...       0.24
freq.     366.38  E(vib)   ...       0.22
freq.     411.52  E(vib)   ...       0.19
freq.     439.70  E(vib)   ...       0.17
freq.     465.10  E(vib)   ...       0.16
freq.     490.07  E(vib)   ...       0.15
freq.     494.24  E(vib)   ...       0.14
freq.     502.55  E(vib)   ...       0.14
freq.     517.63  E(vib)   ...       0.13
freq.     547.96  E(vib)   ...       0.12
freq.     567.88  E(vib)   ...       0.11
freq.     573.22  E(vib)   ...       0.11
freq.     585.05  E(vib)   ...       0.11
freq.     618.41  E(vib)   ...       0.09
freq.     638.59  E(vib)   ...       0.09
freq.     657.16  E(vib)   ...       0.08
freq.     697.06  E(vib)   ...       0.07
freq.     707.04  E(vib)   ...       0.07
freq.     725.67  E(vib)   ...       0.06
freq.     732.48  E(vib)   ...       0.06
freq.     755.36  E(vib)   ...       0.06
freq.     768.81  E(vib)   ...       0.06
freq.     782.07  E(vib)   ...       0.05
freq.     785.16  E(vib)   ...       0.05
freq.     800.23  E(vib)   ...       0.05
freq.     813.32  E(vib)   ...       0.05
freq.     840.29  E(vib)   ...       0.04
freq.     872.56  E(vib)   ...       0.04
freq.     874.11  E(vib)   ...       0.04
freq.     882.15  E(vib)   ...       0.04
freq.     908.45  E(vib)   ...       0.03
freq.     960.20  E(vib)   ...       0.03
freq.     967.60  E(vib)   ...       0.03
freq.     983.22  E(vib)   ...       0.02
freq.     990.21  E(vib)   ...       0.02
freq.    1010.41  E(vib)   ...       0.02
freq.    1025.26  E(vib)   ...       0.02
freq.    1050.67  E(vib)   ...       0.02
freq.    1052.96  E(vib)   ...       0.02
freq.    1063.03  E(vib)   ...       0.02
freq.    1073.52  E(vib)   ...       0.02
freq.    1085.18  E(vib)   ...       0.02
freq.    1086.28  E(vib)   ...       0.02
freq.    1129.05  E(vib)   ...       0.01
freq.    1134.45  E(vib)   ...       0.01
freq.    1154.92  E(vib)   ...       0.01
freq.    1169.68  E(vib)   ...       0.01
freq.    1171.20  E(vib)   ...       0.01
freq.    1174.88  E(vib)   ...       0.01
freq.    1175.44  E(vib)   ...       0.01
freq.    1195.40  E(vib)   ...       0.01
freq.    1206.42  E(vib)   ...       0.01
freq.    1213.36  E(vib)   ...       0.01
freq.    1221.18  E(vib)   ...       0.01
freq.    1233.83  E(vib)   ...       0.01
freq.    1242.19  E(vib)   ...       0.01
freq.    1273.03  E(vib)   ...       0.01
freq.    1296.33  E(vib)   ...       0.01
freq.    1312.41  E(vib)   ...       0.01
freq.    1314.38  E(vib)   ...       0.01
freq.    1327.57  E(vib)   ...       0.01
freq.    1351.95  E(vib)   ...       0.01
freq.    1369.45  E(vib)   ...       0.01
freq.    1379.73  E(vib)   ...       0.01
freq.    1389.23  E(vib)   ...       0.00
freq.    1406.04  E(vib)   ...       0.00
freq.    1421.15  E(vib)   ...       0.00
freq.    1439.12  E(vib)   ...       0.00
freq.    1465.32  E(vib)   ...       0.00
freq.    1466.12  E(vib)   ...       0.00
freq.    1467.85  E(vib)   ...       0.00
freq.    1473.10  E(vib)   ...       0.00
freq.    1473.96  E(vib)   ...       0.00
freq.    1484.18  E(vib)   ...       0.00
freq.    1497.42  E(vib)   ...       0.00
freq.    1528.62  E(vib)   ...       0.00
freq.    1536.63  E(vib)   ...       0.00
freq.    1538.46  E(vib)   ...       0.00
freq.    1645.82  E(vib)   ...       0.00
freq.    1647.80  E(vib)   ...       0.00
freq.    1663.90  E(vib)   ...       0.00
freq.    1696.31  E(vib)   ...       0.00
freq.    1796.32  E(vib)   ...       0.00
freq.    2171.08  E(vib)   ...       0.00
freq.    3037.24  E(vib)   ...       0.00
freq.    3075.98  E(vib)   ...       0.00
freq.    3108.40  E(vib)   ...       0.00
freq.    3132.34  E(vib)   ...       0.00
freq.    3152.23  E(vib)   ...       0.00
freq.    3163.37  E(vib)   ...       0.00
freq.    3166.55  E(vib)   ...       0.00
freq.    3191.70  E(vib)   ...       0.00
freq.    3195.72  E(vib)   ...       0.00
freq.    3198.59  E(vib)   ...       0.00
freq.    3214.68  E(vib)   ...       0.00
freq.    3223.15  E(vib)   ...       0.00
freq.    3231.78  E(vib)   ...       0.00
freq.    3240.38  E(vib)   ...       0.00
freq.    3243.63  E(vib)   ...       0.00
freq.    3252.63  E(vib)   ...       0.00
freq.    3281.62  E(vib)   ...       0.00
freq.    3454.02  E(vib)   ...       0.00

------------
INNER ENERGY
------------

The inner energy is: U= E(el) + E(ZPE) + E(vib) + E(rot) + E(trans)
    E(el)   - is the total energy from the electronic structure calculation
              = E(kin-el) + E(nuc-el) + E(el-el) + E(nuc-nuc)
    E(ZPE)  - the the zero temperature vibrational energy from the frequency calculation
    E(vib)  - the the finite temperature correction to E(ZPE) due to population
              of excited vibrational states
    E(rot)  - is the rotational thermal energy
    E(trans)- is the translational thermal energy

Summary of contributions to the inner energy U:
Electronic energy                ...  -1219.43889360 Eh
Zero point energy                ...      0.34400799 Eh     215.87 kcal/mol
Thermal vibrational correction   ...      0.02124776 Eh      13.33 kcal/mol

Rotational constants in cm-1:     0.008832     0.006902     0.005311

                             ****ORCA TERMINATED NORMALLY****
TOTAL RUN TIME: 0 days 2 hours 4 minutes 39 seconds 982 msec
