                         Program Version 5.0.4 -  RELEASE  -
|  1> %pal nprocs 24 end
|  2> ! PBE0 D3BJ def2-TZVP TightSCF OPT FREQ TightOpt
|  3> ! CPCM(dmso)
|  4> %scf
|  5> MaxIter 800
|  6> end
|  7>
|  8> %geom
|  9> MaxIter 800
| 10> MaxStep 0.15
| 11> end
| 12>
| 13> *xyz 0 1
| 14> C      -1.71782900      0.74969100     -4.11691000
| 15> C      -1.83062500      1.83242500     -3.24386600
| 16> C      -1.81944700      1.59997800     -1.88334700
| 17> N      -1.70746400      0.34571000     -1.40078800
| 18> C      -1.59785100     -0.71702400     -2.22500300
| 19> C      -1.60464000     -0.53647500     -3.59714000
| 20> C      -1.59320100      0.15075900      0.04584900
| 21> C      -2.58779200     -0.89961700      0.51454800
| 22> O      -3.39930600     -1.44068900     -0.19532300
| 23> O      -2.54456100     -1.01360800      1.82729100
| 24> C      -3.42061100     -1.96937600      2.41308000
| 25> H      -1.72116600      0.91039400     -5.19730300
| 26> H      -1.89360200      2.39831000     -1.14320600
| 27> H      -1.54742500     -1.69601300     -1.75048800
| 28> H      -1.51879400     -1.41001600     -4.24442000
| 29> H      -1.92847800      1.08639000      0.51602600
| 30> H      -3.18433500     -2.97648000      2.04093200
| 31> H      -4.46780400     -1.73133700      2.17947900
| 32> C       0.71715400     -0.96290300     -0.37334600
| 33> C      -0.08456900      0.01908100      0.42305100
| 34> C       0.13158600     -0.01086400      1.92386100
| 35> C       0.65036300     -1.11484600      2.59545800
| 36> C       0.86134800     -1.09301500      3.97539000
| 37> C       0.55013300      0.05470900      4.69882100
| 38> C       0.04100300      1.18124600      4.05077100
| 39> C      -0.16372900      1.15065200      2.66823100
| 40> O      -0.64286600      2.19767500      1.95847800
| 41> C      -0.93409000      3.40683600      2.62051200
| 42> N       0.34314500     -2.28568100     -0.40497300
| 43> O       1.01313100     -3.14319200     -0.99613300
| 44> H       0.30079800      1.00204100      0.11062100
| 45> H       0.89071000     -2.01578300      2.02978700
| 46> H       1.26739800     -1.97294700      4.47945500
| 47> H       0.70733000      0.08623500      5.78005200
| 48> H      -0.18960500      2.07850300      4.62592200
| 49> H      -0.03682100      3.82506600      3.10559800
| 50> H      -1.72408900      3.27184800      3.37748600
| 51> H      -1.28705400      4.10454400      1.85131300
| 52> O      -0.73238300     -2.60670200      0.15865000
| 53> H      -3.24914000     -1.91544000      3.49366100
| 54> H      -1.92436200      2.85625800     -3.60765100
| 55> C       1.88554600     -0.59117400     -1.07257500
| 56> H       2.38388700     -1.40740900     -1.60256100
| 57> C       2.45609100      0.64641400     -1.16907400
| 58> H       2.05214800      1.53034500     -0.67048800
| 59> C       3.65616100      0.83320100     -1.96359700
| 60> O       4.25830500     -0.02020600     -2.59331100
| 61> O       4.06711000      2.11760700     -1.94012000
| 62> C       5.22870400      2.42029800     -2.68975100
| 63> H       5.40546700      3.49575400     -2.56771100
| 64> H       6.09845800      1.85545900     -2.32075700
| 65> H       5.08692300      2.18408100     -3.75536600
| 66> *
| 67>
| 68>                          ****END OF INPUT****
 Total Charge           Charge          ....    0
 Multiplicity           Mult            ....    1
 Number of Electrons    NEL             ....  218
Dispersion correction           -0.065460359
FINAL SINGLE POINT ENERGY     -1448.434868886029
Dispersion correction            ... done
Dispersion correction           -0.065411517
FINAL SINGLE POINT ENERGY     -1448.436513138522
Dispersion correction            ... done
Dispersion correction           -0.065839232
FINAL SINGLE POINT ENERGY     -1448.434995761023
Dispersion correction            ... done
FINAL SINGLE POINT ENERGY     -1448.437074618650
FINAL SINGLE POINT ENERGY     -1448.436925437564
FINAL SINGLE POINT ENERGY     -1448.437112652256
FINAL SINGLE POINT ENERGY     -1448.437105370574
FINAL SINGLE POINT ENERGY     -1448.437111056202
FINAL SINGLE POINT ENERGY     -1448.437107771430
FINAL SINGLE POINT ENERGY     -1448.437110788213
FINAL SINGLE POINT ENERGY     -1448.437106117451
FINAL SINGLE POINT ENERGY     -1448.437095529505
Dispersion correction           -0.065712538
FINAL SINGLE POINT ENERGY     -1448.437083286680
Dispersion correction            ... done
Dispersion correction           -0.065721422
FINAL SINGLE POINT ENERGY     -1448.437083187634
Dispersion correction            ... done
                    ***********************HURRAY********************

CARTESIAN COORDINATES (ANGSTROEM)
---------------------------------
  C     -1.569866    0.760719   -4.104949
  C     -1.687718    1.838603   -3.238423
  C     -1.717182    1.606764   -1.885639
  N     -1.639548    0.355369   -1.402406
  C     -1.528088   -0.702420   -2.223362
  C     -1.493724   -0.521374   -3.587151
  C     -1.561824    0.163710    0.047282
  C     -2.584926   -0.862186    0.504013
  O     -3.394089   -1.389223   -0.217237
  O     -2.567035   -0.965018    1.817691
  C     -3.510459   -1.875055    2.390648
  H     -1.540253    0.921154   -5.175694
  H     -1.797387    2.398741   -1.153301
  H     -1.502853   -1.674867   -1.756723
  H     -1.406402   -1.388334   -4.227579
  H     -1.893544    1.100380    0.498201
  H     -3.344801   -2.879638    2.001419
  H     -4.528445   -1.555846    2.167449
  C      0.732800   -0.979248   -0.333227
  C     -0.061163    0.016861    0.449351
  C      0.150164   -0.010893    1.949058
  C      0.718839   -1.090291    2.604717
  C      0.929555   -1.078918    3.977914
  C      0.569881    0.037501    4.712938
  C      0.018813    1.144467    4.080714
  C     -0.181779    1.124352    2.705365
  O     -0.690416    2.170100    2.011592
  C     -1.066656    3.333327    2.724400
  N      0.361941   -2.292353   -0.344704
  O      1.029293   -3.164688   -0.936875
  H      0.334267    0.986252    0.131738
  H      1.002745   -1.964650    2.034016
  H      1.372991   -1.939493    4.464459
  H      0.723358    0.061685    5.785949
  H     -0.244454    2.018082    4.661696
  H     -0.207799    3.778905    3.233727
  H     -1.848778    3.110123    3.455210
  H     -1.450156    4.029412    1.981323
  O     -0.705478   -2.612994    0.238165
  H     -3.328308   -1.847019    3.461609
  H     -1.754025    2.855563   -3.599740
  C      1.880906   -0.615377   -1.060967
  H      2.372925   -1.429008   -1.582683
  C      2.430629    0.618639   -1.194259
  H      2.032410    1.502585   -0.711919
  C      3.603519    0.807167   -2.021052
  O      4.210089   -0.048477   -2.642097
  O      3.980815    2.101017   -2.040437
  C      5.123399    2.407653   -2.831591
  H      5.277788    3.479543   -2.728490
  H      6.000075    1.866220   -2.472770
  H      4.949213    2.153190   -3.878254

 Multiplicity           Mult            ....    1
 Number of Electrons    NEL             ....  218
 Basis Dimension        Dim             .... 1062

ORBITAL ENERGIES
----------------

  NO   OCC          E(Eh)            E(eV)
   0   2.0000     -19.264565      -524.2155
   1   2.0000     -19.247864      -523.7610
   2   2.0000     -19.246059      -523.7119
   3   2.0000     -19.205612      -522.6113
   4   2.0000     -19.197785      -522.3983
   5   2.0000     -19.193487      -522.2813
   6   2.0000     -19.180176      -521.9191
   7   2.0000     -14.579305      -396.7231
   8   2.0000     -14.512932      -394.9170
   9   2.0000     -10.369361      -282.1647
  10   2.0000     -10.338921      -281.3363
  11   2.0000     -10.313091      -280.6335
  12   2.0000     -10.310722      -280.5690
  13   2.0000     -10.306290      -280.4484
  14   2.0000     -10.289233      -279.9843
  15   2.0000     -10.278632      -279.6958
  16   2.0000     -10.271339      -279.4973
  17   2.0000     -10.267659      -279.3972
  18   2.0000     -10.267182      -279.3842
  19   2.0000     -10.266486      -279.3653
  20   2.0000     -10.266376      -279.3623
  21   2.0000     -10.262708      -279.2625
  22   2.0000     -10.253840      -279.0212
  23   2.0000     -10.240806      -278.6665
  24   2.0000     -10.240159      -278.6489
  25   2.0000     -10.227473      -278.3037
  26   2.0000     -10.226068      -278.2655
  27   2.0000     -10.224417      -278.2205
  28   2.0000     -10.219280      -278.0807
  29   2.0000     -10.215943      -277.9899
  30   2.0000      -1.217419       -33.1276
  31   2.0000      -1.158802       -31.5326
  32   2.0000      -1.130359       -30.7586
  33   2.0000      -1.109623       -30.1944
  34   2.0000      -1.084806       -29.5191
  35   2.0000      -1.062493       -28.9119
  36   2.0000      -1.035569       -28.1793
  37   2.0000      -1.033195       -28.1147
  38   2.0000      -0.909111       -24.7382
  39   2.0000      -0.890020       -24.2187
  40   2.0000      -0.873145       -23.7595
  41   2.0000      -0.844915       -22.9913
  42   2.0000      -0.830493       -22.5989
  43   2.0000      -0.801739       -21.8164
  44   2.0000      -0.792034       -21.5524
  45   2.0000      -0.776099       -21.1187
  46   2.0000      -0.756003       -20.5719
  47   2.0000      -0.744598       -20.2615
  48   2.0000      -0.727417       -19.7940
  49   2.0000      -0.715134       -19.4598
  50   2.0000      -0.709710       -19.3122
  51   2.0000      -0.681808       -18.5529
  52   2.0000      -0.656139       -17.8544
  53   2.0000      -0.628883       -17.1128
  54   2.0000      -0.619350       -16.8534
  55   2.0000      -0.610413       -16.6102
  56   2.0000      -0.585418       -15.9300
  57   2.0000      -0.575904       -15.6711
  58   2.0000      -0.567308       -15.4372
  59   2.0000      -0.559421       -15.2226
  60   2.0000      -0.558985       -15.2107
  61   2.0000      -0.550894       -14.9906
  62   2.0000      -0.543007       -14.7760
  63   2.0000      -0.529739       -14.4149
  64   2.0000      -0.525618       -14.3028
  65   2.0000      -0.519844       -14.1457
  66   2.0000      -0.513538       -13.9741
  67   2.0000      -0.508668       -13.8416
  68   2.0000      -0.505663       -13.7598
  69   2.0000      -0.499699       -13.5975
  70   2.0000      -0.496153       -13.5010
  71   2.0000      -0.495048       -13.4709
  72   2.0000      -0.490447       -13.3458
  73   2.0000      -0.489472       -13.3192
  74   2.0000      -0.486190       -13.2299
  75   2.0000      -0.481914       -13.1135
  76   2.0000      -0.468908       -12.7596
  77   2.0000      -0.457499       -12.4492
  78   2.0000      -0.449573       -12.2335
  79   2.0000      -0.441865       -12.0238
  80   2.0000      -0.432055       -11.7568
  81   2.0000      -0.430919       -11.7259
  82   2.0000      -0.423762       -11.5311
  83   2.0000      -0.420943       -11.4545
  84   2.0000      -0.416985       -11.3467
  85   2.0000      -0.412421       -11.2226
  86   2.0000      -0.409625       -11.1465
  87   2.0000      -0.404350       -11.0029
  88   2.0000      -0.393304       -10.7023
  89   2.0000      -0.383960       -10.4481
  90   2.0000      -0.378666       -10.3040
  91   2.0000      -0.375089       -10.2067
  92   2.0000      -0.367900       -10.0111
  93   2.0000      -0.363666        -9.8959
  94   2.0000      -0.349092        -9.4993
  95   2.0000      -0.343178        -9.3384
  96   2.0000      -0.341600        -9.2954
  97   2.0000      -0.333246        -9.0681
  98   2.0000      -0.325960        -8.8698
  99   2.0000      -0.320055        -8.7091
 100   2.0000      -0.315502        -8.5853
 101   2.0000      -0.312611        -8.5066
 102   2.0000      -0.305287        -8.3073
 103   2.0000      -0.300302        -8.1716
 104   2.0000      -0.291626        -7.9356
 105   2.0000      -0.277696        -7.5565
 106   2.0000      -0.266557        -7.2534
 107   2.0000      -0.239385        -6.5140
 108   2.0000      -0.210420        -5.7258
 109   0.0000      -0.085251        -2.3198
 110   0.0000      -0.059186        -1.6105
 111   0.0000      -0.047251        -1.2858
 112   0.0000      -0.013629        -0.3709
 113   0.0000       0.002600         0.0708

MULLIKEN ATOMIC CHARGES
-----------------------
   0 C :   -0.082187
   1 C :   -0.130611
   2 C :   -0.038467
   3 N :    0.206574
   4 C :    0.003739
   5 C :   -0.151551
   6 C :   -0.181789
   7 C :    0.316807
   8 O :   -0.380685
   9 O :   -0.203123
  10 C :   -0.271208
  11 H :    0.188965
  12 H :    0.208631
  13 H :    0.192284
  14 H :    0.190641
  15 H :    0.193576
  16 H :    0.155152
  17 H :    0.155795
  18 C :   -0.255012
  19 C :    0.286897
  20 C :   -0.022558
  21 C :   -0.212014
  22 C :   -0.209004
  23 C :   -0.148161
  24 C :   -0.305551
  25 C :    0.286606
  26 O :   -0.270648
  27 C :   -0.292650
  28 N :    0.522985
  29 O :   -0.499638
  30 H :    0.081033
  31 H :    0.156476
  32 H :    0.145101
  33 H :    0.150377
  34 H :    0.162809
  35 H :    0.154342
  36 H :    0.152967
  37 H :    0.163500
  38 O :   -0.483124
  39 H :    0.162847
  40 H :    0.192483
  41 C :   -0.144519
  42 H :    0.131755
  43 C :   -0.230802
  44 H :    0.140255
  45 C :    0.330993
  46 O :   -0.459979
  47 O :   -0.250352
  48 C :   -0.251406
  49 H :    0.154297
  50 H :    0.143826
  51 H :    0.143329
Sum of atomic charges:   -0.0000000

LOEWDIN ATOMIC CHARGES
----------------------
   0 C :   -0.053378
   1 C :   -0.098794
   2 C :   -0.074478
   3 N :    0.343212
   4 C :   -0.078820
   5 C :   -0.097598
   6 C :   -0.148005
   7 C :   -0.498494
   8 O :    0.092019
   9 O :    0.291661
  10 C :   -0.299179
  11 H :    0.172301
  12 H :    0.177414
  13 H :    0.172510
  14 H :    0.174196
  15 H :    0.191895
  16 H :    0.120234
  17 H :    0.120114
  18 C :   -0.244536
  19 C :   -0.147341
  20 C :   -0.099139
  21 C :   -0.111518
  22 C :   -0.167764
  23 C :   -0.149721
  24 C :   -0.144420
  25 C :   -0.231372
  26 O :    0.246769
  27 C :   -0.324879
  28 N :   -0.052104
  29 O :   -0.182228
  30 H :    0.194791
  31 H :    0.160470
  32 H :    0.151425
  33 H :    0.153659
  34 H :    0.159881
  35 H :    0.118508
  36 H :    0.117867
  37 H :    0.122013
  38 O :   -0.145467
  39 H :    0.123307
  40 H :    0.174127
  41 C :   -0.118761
  42 H :    0.164818
  43 C :   -0.192258
  44 H :    0.149417
  45 C :   -0.510544
  46 O :    0.022681
  47 O :    0.232361
  48 C :   -0.324948
  49 H :    0.118820
  50 H :    0.114699
  51 H :    0.114578

  Mayer bond orders larger than 0.100000
B(  0-C ,  1-C ) :   1.3952 B(  0-C ,  5-C ) :   1.4217 B(  0-C , 11-H ) :   0.9418
B(  1-C ,  2-C ) :   1.4566 B(  1-C , 40-H ) :   0.9445 B(  2-C ,  3-N ) :   1.2790
B(  2-C , 12-H ) :   0.9299 B(  3-N ,  4-C ) :   1.2747 B(  3-N ,  6-C ) :   0.8623
B(  4-C ,  5-C ) :   1.4505 B(  4-C , 13-H ) :   0.9078 B(  5-C , 14-H ) :   0.9442
B(  6-C ,  7-C ) :   1.0181 B(  6-C , 15-H ) :   0.8993 B(  6-C , 19-C ) :   0.8293
B(  6-C , 20-C ) :   0.1011 B(  7-C ,  8-O ) :   1.9798 B(  7-C ,  9-O ) :   1.2646
B(  9-O , 10-C ) :   0.8907 B( 10-C , 16-H ) :   0.9672 B( 10-C , 17-H ) :   0.9655
B( 10-C , 39-H ) :   0.9645 B( 18-C , 19-C ) :   0.8727 B( 18-C , 28-N ) :   1.3364
B( 18-C , 29-O ) :   0.1067 B( 18-C , 41-C ) :   1.3129 B( 19-C , 20-C ) :   0.9959
B( 19-C , 30-H ) :   0.9342 B( 20-C , 21-C ) :   1.3828 B( 20-C , 25-C ) :   1.2978
B( 21-C , 22-C ) :   1.4027 B( 21-C , 31-H ) :   0.9722 B( 22-C , 23-C ) :   1.4040
B( 22-C , 32-H ) :   0.9848 B( 23-C , 24-C ) :   1.3913 B( 23-C , 33-H ) :   0.9689
B( 24-C , 25-C ) :   1.3681 B( 24-C , 34-H ) :   0.9629 B( 25-C , 26-O ) :   1.0831
B( 26-O , 27-C ) :   0.9369 B( 27-C , 35-H ) :   0.9607 B( 27-C , 36-H ) :   0.9629
B( 27-C , 37-H ) :   0.9651 B( 28-N , 29-O ) :   1.4043 B( 28-N , 38-O ) :   1.3113
B( 41-C , 42-H ) :   0.9232 B( 41-C , 43-C ) :   1.5821 B( 43-C , 44-H ) :   0.9441
B( 43-C , 45-C ) :   1.1395 B( 45-C , 46-O ) :   1.9112 B( 45-C , 47-O ) :   1.2122
B( 47-O , 48-C ) :   0.9076 B( 48-C , 49-H ) :   0.9642 B( 48-C , 50-H ) :   0.9695
B( 48-C , 51-H ) :   0.9695

Dispersion correction           -0.065726803
FINAL SINGLE POINT ENERGY     -1448.437083978106

DIPOLE MOMENT
-------------
                                X             Y             Z
Electronic contribution:     -3.34772      -8.49088      -6.65405
Nuclear contribution   :     -0.78564      14.57178       6.25189
                        -----------------------------------------
Total Dipole Moment    :     -4.13337       6.08090      -0.40216
                        -----------------------------------------
Magnitude (a.u.)       :      7.36368
Magnitude (Debye)      :     18.71698

Dispersion correction in the Hessian             ... done   (      0.9 sec)

VIBRATIONAL FREQUENCIES
-----------------------

Scaling factor for frequencies =  1.000000000  (already applied!)

   0:         0.00 cm**-1
   1:         0.00 cm**-1
   2:         0.00 cm**-1
   3:         0.00 cm**-1
   4:         0.00 cm**-1
   5:         0.00 cm**-1
   6:        10.25 cm**-1
   7:        26.34 cm**-1
   8:        33.31 cm**-1
   9:        43.63 cm**-1
  10:        45.94 cm**-1
  11:        60.33 cm**-1
  12:        70.56 cm**-1
  13:        76.55 cm**-1
  14:        85.26 cm**-1
  15:        92.12 cm**-1
  16:        94.65 cm**-1
  17:        99.10 cm**-1
  18:       106.81 cm**-1
  19:       130.52 cm**-1
  20:       146.87 cm**-1
  21:       150.75 cm**-1
  22:       159.04 cm**-1
  23:       162.32 cm**-1
  24:       171.30 cm**-1
  25:       179.41 cm**-1
  26:       205.26 cm**-1
  27:       212.42 cm**-1
  28:       234.96 cm**-1
  29:       252.76 cm**-1
  30:       259.86 cm**-1
  31:       261.95 cm**-1
  32:       268.90 cm**-1
  33:       297.98 cm**-1
  34:       302.32 cm**-1
  35:       312.16 cm**-1
  36:       347.01 cm**-1
  37:       359.37 cm**-1
  38:       376.03 cm**-1
  39:       421.18 cm**-1
  40:       437.09 cm**-1
  41:       462.50 cm**-1
  42:       485.84 cm**-1
  43:       505.37 cm**-1
  44:       507.91 cm**-1
  45:       551.24 cm**-1
  46:       576.86 cm**-1
  47:       590.90 cm**-1
  48:       606.80 cm**-1
  49:       638.84 cm**-1
  50:       657.69 cm**-1
  51:       660.68 cm**-1
  52:       684.95 cm**-1
  53:       699.38 cm**-1
  54:       712.49 cm**-1
  55:       749.53 cm**-1
  56:       755.62 cm**-1
  57:       761.61 cm**-1
  58:       768.62 cm**-1
  59:       788.33 cm**-1
  60:       796.61 cm**-1
  61:       813.63 cm**-1
  62:       825.30 cm**-1
  63:       840.18 cm**-1
  64:       844.90 cm**-1
  65:       862.65 cm**-1
  66:       873.15 cm**-1
  67:       883.73 cm**-1
  68:       929.12 cm**-1
  69:       939.07 cm**-1
  70:       954.90 cm**-1
  71:       966.89 cm**-1
  72:       984.80 cm**-1
  73:       990.21 cm**-1
  74:      1019.06 cm**-1
  75:      1020.90 cm**-1
  76:      1036.68 cm**-1
  77:      1049.08 cm**-1
  78:      1061.29 cm**-1
  79:      1071.79 cm**-1
  80:      1076.63 cm**-1
  81:      1080.70 cm**-1
  82:      1086.38 cm**-1
  83:      1087.51 cm**-1
  84:      1130.23 cm**-1
  85:      1135.63 cm**-1
  86:      1168.78 cm**-1
  87:      1170.30 cm**-1
  88:      1170.56 cm**-1
  89:      1171.92 cm**-1
  90:      1173.96 cm**-1
  91:      1176.36 cm**-1
  92:      1187.86 cm**-1
  93:      1201.63 cm**-1
  94:      1208.26 cm**-1
  95:      1209.27 cm**-1
  96:      1215.41 cm**-1
  97:      1229.22 cm**-1
  98:      1231.47 cm**-1
  99:      1260.04 cm**-1
 100:      1269.25 cm**-1
 101:      1278.30 cm**-1
 102:      1291.08 cm**-1
 103:      1296.06 cm**-1
 104:      1307.11 cm**-1
 105:      1319.98 cm**-1
 106:      1344.92 cm**-1
 107:      1371.60 cm**-1
 108:      1379.63 cm**-1
 109:      1386.44 cm**-1
 110:      1404.61 cm**-1
 111:      1422.82 cm**-1
 112:      1431.40 cm**-1
 113:      1462.93 cm**-1
 114:      1464.28 cm**-1
 115:      1465.59 cm**-1
 116:      1465.92 cm**-1
 117:      1471.66 cm**-1
 118:      1473.64 cm**-1
 119:      1473.93 cm**-1
 120:      1476.94 cm**-1
 121:      1484.49 cm**-1
 122:      1486.94 cm**-1
 123:      1498.72 cm**-1
 124:      1528.03 cm**-1
 125:      1533.96 cm**-1
 126:      1535.46 cm**-1
 127:      1635.61 cm**-1
 128:      1645.00 cm**-1
 129:      1648.54 cm**-1
 130:      1664.71 cm**-1
 131:      1696.41 cm**-1
 132:      1723.76 cm**-1
 133:      1787.62 cm**-1
 134:      3039.49 cm**-1
 135:      3061.32 cm**-1
 136:      3070.92 cm**-1
 137:      3073.24 cm**-1
 138:      3111.83 cm**-1
 139:      3118.08 cm**-1
 140:      3138.21 cm**-1
 141:      3157.80 cm**-1
 142:      3166.01 cm**-1
 143:      3173.78 cm**-1
 144:      3191.04 cm**-1
 145:      3193.05 cm**-1
 146:      3202.43 cm**-1
 147:      3208.54 cm**-1
 148:      3212.01 cm**-1
 149:      3222.98 cm**-1
 150:      3228.24 cm**-1
 151:      3231.07 cm**-1
 152:      3239.71 cm**-1
 153:      3242.64 cm**-1
 154:      3250.82 cm**-1
 155:      3268.24 cm**-1

IR SPECTRUM
-----------

 Mode   freq       eps      Int      T**2         TX        TY        TZ
       cm**-1   L/(mol*cm) km/mol    a.u.
----------------------------------------------------------------------------
  6:     10.25   0.000195    0.99  0.005948  (-0.073089 -0.011630  0.021698)
  7:     26.34   0.000103    0.52  0.001215  (-0.000870  0.034701 -0.003162)
  8:     33.31   0.000481    2.43  0.004502  (-0.051802  0.041097 -0.011387)
  9:     43.63   0.001517    7.67  0.010851  (-0.088491  0.003702 -0.054835)
 10:     45.94   0.000486    2.46  0.003304  (-0.033058 -0.028917  0.037077)
 11:     60.33   0.000852    4.31  0.004407  ( 0.048979 -0.037991  0.023774)
 12:     70.56   0.000891    4.51  0.003943  ( 0.046856 -0.040388 -0.010782)
 13:     76.55   0.000425    2.15  0.001734  ( 0.012525 -0.027368 -0.028775)
 14:     85.26   0.000542    2.74  0.001983  ( 0.030120 -0.007861 -0.031845)
 15:     92.12   0.000291    1.47  0.000986  (-0.026266 -0.001074 -0.017161)
 16:     94.65   0.001046    5.29  0.003450  (-0.048219 -0.011272  0.031591)
 17:     99.10   0.000861    4.35  0.002710  ( 0.002544 -0.039154  0.034213)
 18:    106.81   0.001091    5.51  0.003187  ( 0.049370  0.011669  0.024771)
 19:    130.52   0.000691    3.49  0.001652  (-0.025354 -0.026689 -0.017220)
 20:    146.87   0.000789    3.99  0.001677  (-0.022595  0.007402 -0.033338)
 21:    150.75   0.001083    5.47  0.002242  (-0.030341 -0.001601 -0.036313)
 22:    159.04   0.000265    1.34  0.000519  (-0.015094 -0.004013 -0.016593)
 23:    162.32   0.000405    2.05  0.000779  (-0.023137  0.003565  0.015204)
 24:    171.30   0.001845    9.32  0.003361  (-0.051821  0.012126 -0.022996)
 25:    179.41   0.002419   12.22  0.004208  (-0.032911  0.016324  0.053460)
 26:    205.26   0.000388    1.96  0.000590  ( 0.002710 -0.020082 -0.013408)
 27:    212.42   0.000396    2.00  0.000581  (-0.019323  0.004860 -0.013571)
 28:    234.96   0.002279   11.52  0.003027  (-0.035464  0.040066  0.012804)
 29:    252.76   0.000717    3.62  0.000885  (-0.026417  0.002066 -0.013510)
 30:    259.86   0.001343    6.79  0.001613  ( 0.005982 -0.027992 -0.028176)
 31:    261.95   0.001285    6.49  0.001531  ( 0.018274 -0.025860  0.022974)
 32:    268.90   0.002561   12.94  0.002972  (-0.004060  0.011722 -0.053090)
 33:    297.98   0.001264    6.39  0.001323  ( 0.003207 -0.007846  0.035375)
 34:    302.32   0.000999    5.05  0.001031  (-0.028646 -0.008131 -0.012011)
 35:    312.16   0.000114    0.57  0.000114  (-0.002370  0.008627  0.005792)
 36:    347.01   0.007289   36.83  0.006554  ( 0.044025  0.061051 -0.029816)
 37:    359.37   0.000353    1.78  0.000307  ( 0.002324 -0.003010  0.017094)
 38:    376.03   0.004447   22.47  0.003690  ( 0.030136  0.020904 -0.048429)
 39:    421.18   0.000442    2.24  0.000328  ( 0.013929  0.009066 -0.007183)
 40:    437.09   0.000251    1.27  0.000179  ( 0.002962  0.006492 -0.011313)
 41:    462.50   0.000059    0.30  0.000040  (-0.002280 -0.004930  0.003191)
 42:    485.84   0.000186    0.94  0.000120  ( 0.000462 -0.002026  0.010733)
 43:    505.37   0.000878    4.44  0.000542  ( 0.001598  0.000461  0.023227)
 44:    507.91   0.006822   34.48  0.004192  ( 0.058840  0.011540 -0.024416)
 45:    551.24   0.004383   22.15  0.002481  ( 0.048268  0.008998 -0.008408)
 46:    576.86   0.006778   34.25  0.003666  (-0.046914 -0.004299  0.038040)
 47:    590.90   0.006403   32.36  0.003382  (-0.049802  0.028101 -0.010571)
 48:    606.80   0.001455    7.35  0.000748  ( 0.006138  0.011428 -0.024080)
 49:    638.84   0.005680   28.70  0.002775  ( 0.028993  0.034993  0.026635)
 50:    657.69   0.001443    7.29  0.000685  ( 0.022837  0.011649  0.005254)
 51:    660.68   0.000744    3.76  0.000351  ( 0.012199 -0.013588 -0.004243)
 52:    684.95   0.001143    5.78  0.000521  ( 0.017165  0.003457 -0.014634)
 53:    699.38   0.004838   24.45  0.002159  (-0.039771 -0.007286  0.022887)
 54:    712.49   0.029106  147.09  0.012748  (-0.110840 -0.012557 -0.017460)
 55:    749.53   0.000832    4.21  0.000347  ( 0.006373 -0.015852  0.007393)
 56:    755.62   0.001969    9.95  0.000813  (-0.016105 -0.021906 -0.008592)
 57:    761.61   0.010132   51.20  0.004152  (-0.059451  0.019909  0.014858)
 58:    768.62   0.013619   68.82  0.005529  ( 0.064523  0.036277 -0.007067)
 59:    788.33   0.001994   10.08  0.000789  ( 0.009285 -0.025980  0.005296)
 60:    796.61   0.004280   21.63  0.001677  ( 0.034143 -0.003977  0.022249)
 61:    813.63   0.003793   19.17  0.001455  ( 0.000441 -0.029026  0.024736)
 62:    825.30   0.015660   79.14  0.005921  (-0.060798 -0.033344  0.033363)
 63:    840.18   0.017938   90.65  0.006663  ( 0.069938  0.039602 -0.014249)
 64:    844.90   0.019097   96.51  0.007054  ( 0.007016 -0.034751  0.076136)
 65:    862.65   0.010371   52.41  0.003752  (-0.054226 -0.012354 -0.025664)
 66:    873.15   0.000671    3.39  0.000240  ( 0.000011 -0.010285  0.011581)
 67:    883.73   0.000511    2.58  0.000181  (-0.009341 -0.009336  0.002478)
 68:    929.12   0.002552   12.90  0.000857  (-0.013663  0.011451  0.023224)
 69:    939.07   0.011665   58.95  0.003876  ( 0.004308 -0.058301 -0.021418)
 70:    954.90   0.000314    1.58  0.000102  ( 0.009951  0.001482 -0.001110)
 71:    966.89   0.000177    0.89  0.000057  (-0.004784  0.004966  0.003094)
 72:    984.80   0.000434    2.20  0.000138  ( 0.006544  0.009339 -0.002763)
 73:    990.21   0.002949   14.90  0.000929  ( 0.016469  0.021561 -0.013906)
 74:   1019.06   0.002841   14.35  0.000870  ( 0.012495  0.024726 -0.010117)
 75:   1020.90   0.007631   38.56  0.002333  (-0.016232  0.018824 -0.041409)
 76:   1036.68   0.002735   13.82  0.000823  (-0.020783  0.009301  0.017461)
 77:   1049.08   0.000210    1.06  0.000062  ( 0.000086 -0.005789  0.005369)
 78:   1061.29   0.003105   15.69  0.000913  ( 0.027313  0.010985 -0.006800)
 79:   1071.79   0.011722   59.24  0.003413  (-0.030677  0.011423  0.048388)
 80:   1076.63   0.007011   35.43  0.002032  ( 0.030526 -0.015138 -0.029515)
 81:   1080.70   0.056155  283.79  0.016215  (-0.055517 -0.109889  0.032524)
 82:   1086.38   0.007348   37.13  0.002111  ( 0.003943  0.041848 -0.018547)
 83:   1087.51   0.012171   61.51  0.003493  ( 0.041034  0.042331  0.004104)
 84:   1130.23   0.004447   22.47  0.001228  ( 0.017817  0.027267  0.012919)
 85:   1135.63   0.006839   34.56  0.001879  (-0.022916  0.031180  0.019546)
 86:   1168.78   0.071828  362.99  0.019178  (-0.083468 -0.106453  0.029646)
 87:   1170.30   0.014378   72.66  0.003834  (-0.030414 -0.052844  0.010786)
 88:   1170.56   0.000168    0.85  0.000045  (-0.004502  0.001058 -0.004843)
 89:   1171.92   0.003137   15.85  0.000835  (-0.018728 -0.020160  0.008834)
 90:   1173.96   0.006216   31.41  0.001652  (-0.029486 -0.014273  0.024065)
 91:   1176.36   0.002464   12.45  0.000654  ( 0.001507 -0.025151  0.004344)
 92:   1187.86   0.496182  2507.50  0.130352  (-0.231017 -0.258555  0.100661)
 93:   1201.63   0.004663   23.56  0.001211  (-0.022533  0.000735  0.026508)
 94:   1208.26   0.026423  133.53  0.006825  (-0.054986 -0.059016  0.017838)
 95:   1209.27   0.016191   81.82  0.004178  (-0.036535 -0.042250  0.032532)
 96:   1215.41   0.001268    6.41  0.000326  ( 0.015116 -0.001664  0.009717)
 97:   1229.22   0.006386   32.27  0.001621  (-0.010928  0.000593  0.038747)
 98:   1231.47   0.011799   59.63  0.002990  ( 0.005625  0.027353 -0.047012)
 99:   1260.04   0.082288  415.85  0.020380  ( 0.104205  0.096867  0.011731)
100:   1269.25   0.032616  164.83  0.008019  ( 0.003831  0.061400  0.065073)
101:   1278.30   0.201379  1017.69  0.049161  ( 0.082226  0.174661 -0.109059)
102:   1291.08   0.035958  181.72  0.008691  (-0.082657 -0.002273  0.043058)
103:   1296.06   0.043063  217.62  0.010369  ( 0.004017 -0.088589  0.050045)
104:   1307.11   0.037361  188.81  0.008920  ( 0.026359 -0.089252 -0.016093)
105:   1319.98   0.008588   43.40  0.002030  (-0.008565 -0.015710  0.041355)
106:   1344.92   0.119343  603.11  0.027691  ( 0.106554  0.093964 -0.086651)
107:   1371.60   0.049507  250.19  0.011264  (-0.062240 -0.080434  0.030337)
108:   1379.63   0.024118  121.88  0.005455  (-0.039469 -0.059334  0.019418)
109:   1386.44   0.005032   25.43  0.001133  (-0.000160 -0.033193 -0.005559)
110:   1404.61   0.098012  495.31  0.021775  (-0.128258 -0.010369  0.072234)
111:   1422.82   0.078067  394.52  0.017122  (-0.022771 -0.126009  0.026934)
112:   1431.40   0.060245  304.45  0.013134  ( 0.042467  0.106177  0.007561)
113:   1462.93   0.010199   51.54  0.002176  (-0.029176  0.005628  0.035953)
114:   1464.28   0.003713   18.76  0.000791  ( 0.015767 -0.007363  0.022102)
115:   1465.59   0.011328   57.25  0.002412  ( 0.034663 -0.032765 -0.011704)
116:   1465.92   0.003610   18.24  0.000769  ( 0.018770 -0.020281 -0.002209)
117:   1471.66   0.014245   71.99  0.003021  ( 0.032470  0.022077 -0.038456)
118:   1473.64   0.002686   13.57  0.000569  ( 0.010098  0.008173  0.019999)
119:   1473.93   0.003079   15.56  0.000652  ( 0.024278  0.007273 -0.003091)
120:   1476.94   0.004405   22.26  0.000931  ( 0.005078 -0.029591 -0.005421)
121:   1484.49   0.005617   28.39  0.001181  ( 0.014825 -0.026642  0.015851)
122:   1486.94   0.009050   45.74  0.001899  (-0.037154  0.008292  0.021218)
123:   1498.72   0.017869   90.30  0.003721  ( 0.036553 -0.048748  0.002844)
124:   1528.03   0.016312   82.43  0.003331  (-0.015053  0.050222  0.024133)
125:   1533.96   0.005977   30.21  0.001216  ( 0.017725 -0.029368 -0.006272)
126:   1535.46   0.032747  165.49  0.006655  ( 0.035249 -0.063790  0.036657)
127:   1635.61   0.174161  880.14  0.033229  ( 0.161106  0.027857 -0.080607)
128:   1645.00   0.014281   72.17  0.002709  ( 0.039220  0.021399 -0.026703)
129:   1648.54   0.014473   73.14  0.002740  (-0.035504 -0.037141  0.009988)
130:   1664.71   0.014723   74.40  0.002760  (-0.000767  0.045062 -0.026996)
131:   1696.41   0.019286   97.46  0.003548  ( 0.000956  0.013197 -0.058075)
132:   1723.76   0.104459  527.89  0.018911  (-0.073906  0.092332  0.070168)
133:   1787.62   0.108995  550.81  0.019027  ( 0.080963  0.035825  0.105776)
134:   3039.49   0.012841   64.89  0.001318  ( 0.009997 -0.030624 -0.016750)
135:   3061.32   0.010704   54.10  0.001091  (-0.025865 -0.012210  0.016526)
136:   3070.92   0.000658    3.33  0.000067  (-0.002697  0.007432 -0.002096)
137:   3073.24   0.006538   33.04  0.000664  ( 0.017594  0.014339 -0.012194)
138:   3111.83   0.007397   37.38  0.000742  ( 0.024783  0.010905 -0.002945)
139:   3118.08   0.004907   24.80  0.000491  ( 0.009360  0.016956  0.010770)
140:   3138.21   0.006102   30.83  0.000607  (-0.014499  0.003901 -0.019527)
141:   3157.80   0.003630   18.35  0.000359  ( 0.013172 -0.013436 -0.002170)
142:   3166.01   0.003734   18.87  0.000368  ( 0.006532 -0.011552  0.013853)
143:   3173.78   0.004059   20.51  0.000399  (-0.000917 -0.019654 -0.003470)
144:   3191.04   0.002069   10.46  0.000202  (-0.003332 -0.001433 -0.013756)
145:   3193.05   0.000534    2.70  0.000052  ( 0.000275 -0.002804 -0.006650)
146:   3202.43   0.001510    7.63  0.000147  ( 0.004730 -0.009549 -0.005793)
147:   3208.54   0.002989   15.10  0.000291  (-0.004533  0.007083 -0.014831)
148:   3212.01   0.001121    5.66  0.000109  ( 0.008496  0.001331 -0.005910)
149:   3222.98   0.000090    0.46  0.000009  ( 0.000478  0.000137  0.002911)
150:   3228.24   0.002297   11.61  0.000222  (-0.005897  0.013684 -0.000084)
151:   3231.07   0.000370    1.87  0.000036  (-0.001435  0.001513 -0.005602)
152:   3239.71   0.000445    2.25  0.000043  ( 0.000338 -0.002522 -0.006030)
153:   3242.64   0.001182    5.97  0.000114  (-0.000486 -0.003491 -0.010066)
154:   3250.82   0.001627    8.22  0.000156  (-0.001527  0.012379  0.000778)
155:   3268.24   0.003908   19.75  0.000373  ( 0.007613 -0.013275  0.011789)

--------------------------
THERMOCHEMISTRY AT 298.15K
--------------------------

Temperature         ... 298.15 K
Pressure            ... 1.00 atm
Total Mass          ... 414.41 AMU

Throughout the following assumptions are being made:
  (1) The electronic state is orbitally nondegenerate
  (2) There are no thermally accessible electronically excited states
  (3) Hindered rotations indicated by low frequency modes are not
      treated as such but are treated as vibrations and this may
      cause some error
  (4) All equations used are the standard statistical mechanics
      equations for an ideal gas
  (5) All vibrations are strictly harmonic

freq.      10.25  E(vib)   ...       0.58
freq.      26.34  E(vib)   ...       0.56
freq.      33.31  E(vib)   ...       0.55
freq.      43.63  E(vib)   ...       0.53
freq.      45.94  E(vib)   ...       0.53
freq.      60.33  E(vib)   ...       0.51
freq.      70.56  E(vib)   ...       0.50
freq.      76.55  E(vib)   ...       0.49
freq.      85.26  E(vib)   ...       0.48
freq.      92.12  E(vib)   ...       0.47
freq.      94.65  E(vib)   ...       0.47
freq.      99.10  E(vib)   ...       0.46
freq.     106.81  E(vib)   ...       0.45
freq.     130.52  E(vib)   ...       0.43
freq.     146.87  E(vib)   ...       0.41
freq.     150.75  E(vib)   ...       0.40
freq.     159.04  E(vib)   ...       0.39
freq.     162.32  E(vib)   ...       0.39
freq.     171.30  E(vib)   ...       0.38
freq.     179.41  E(vib)   ...       0.37
freq.     205.26  E(vib)   ...       0.35
freq.     212.42  E(vib)   ...       0.34
freq.     234.96  E(vib)   ...       0.32
freq.     252.76  E(vib)   ...       0.30
freq.     259.86  E(vib)   ...       0.30
freq.     261.95  E(vib)   ...       0.29
freq.     268.90  E(vib)   ...       0.29
freq.     297.98  E(vib)   ...       0.27
freq.     302.32  E(vib)   ...       0.26
freq.     312.16  E(vib)   ...       0.25
freq.     347.01  E(vib)   ...       0.23
freq.     359.37  E(vib)   ...       0.22
freq.     376.03  E(vib)   ...       0.21
freq.     421.18  E(vib)   ...       0.18
freq.     437.09  E(vib)   ...       0.17
freq.     462.50  E(vib)   ...       0.16
freq.     485.84  E(vib)   ...       0.15
freq.     505.37  E(vib)   ...       0.14
freq.     507.91  E(vib)   ...       0.14
freq.     551.24  E(vib)   ...       0.12
freq.     576.86  E(vib)   ...       0.11
freq.     590.90  E(vib)   ...       0.10
freq.     606.80  E(vib)   ...       0.10
freq.     638.84  E(vib)   ...       0.09
freq.     657.69  E(vib)   ...       0.08
freq.     660.68  E(vib)   ...       0.08
freq.     684.95  E(vib)   ...       0.07
freq.     699.38  E(vib)   ...       0.07
freq.     712.49  E(vib)   ...       0.07
freq.     749.53  E(vib)   ...       0.06
freq.     755.62  E(vib)   ...       0.06
freq.     761.61  E(vib)   ...       0.06
freq.     768.62  E(vib)   ...       0.06
freq.     788.33  E(vib)   ...       0.05
freq.     796.61  E(vib)   ...       0.05
freq.     813.63  E(vib)   ...       0.05
freq.     825.30  E(vib)   ...       0.04
freq.     840.18  E(vib)   ...       0.04
freq.     844.90  E(vib)   ...       0.04
freq.     862.65  E(vib)   ...       0.04
freq.     873.15  E(vib)   ...       0.04
freq.     883.73  E(vib)   ...       0.04
freq.     929.12  E(vib)   ...       0.03
freq.     939.07  E(vib)   ...       0.03
freq.     954.90  E(vib)   ...       0.03
freq.     966.89  E(vib)   ...       0.03
freq.     984.80  E(vib)   ...       0.02
freq.     990.21  E(vib)   ...       0.02
freq.    1019.06  E(vib)   ...       0.02
freq.    1020.90  E(vib)   ...       0.02
freq.    1036.68  E(vib)   ...       0.02
freq.    1049.08  E(vib)   ...       0.02
freq.    1061.29  E(vib)   ...       0.02
freq.    1071.79  E(vib)   ...       0.02
freq.    1076.63  E(vib)   ...       0.02
freq.    1080.70  E(vib)   ...       0.02
freq.    1086.38  E(vib)   ...       0.02
freq.    1087.51  E(vib)   ...       0.02
freq.    1130.23  E(vib)   ...       0.01
freq.    1135.63  E(vib)   ...       0.01
freq.    1168.78  E(vib)   ...       0.01
freq.    1170.30  E(vib)   ...       0.01
freq.    1170.56  E(vib)   ...       0.01
freq.    1171.92  E(vib)   ...       0.01
freq.    1173.96  E(vib)   ...       0.01
freq.    1176.36  E(vib)   ...       0.01
freq.    1187.86  E(vib)   ...       0.01
freq.    1201.63  E(vib)   ...       0.01
freq.    1208.26  E(vib)   ...       0.01
freq.    1209.27  E(vib)   ...       0.01
freq.    1215.41  E(vib)   ...       0.01
freq.    1229.22  E(vib)   ...       0.01
freq.    1231.47  E(vib)   ...       0.01
freq.    1260.04  E(vib)   ...       0.01
freq.    1269.25  E(vib)   ...       0.01
freq.    1278.30  E(vib)   ...       0.01
freq.    1291.08  E(vib)   ...       0.01
freq.    1296.06  E(vib)   ...       0.01
freq.    1307.11  E(vib)   ...       0.01
freq.    1319.98  E(vib)   ...       0.01
freq.    1344.92  E(vib)   ...       0.01
freq.    1371.60  E(vib)   ...       0.01
freq.    1379.63  E(vib)   ...       0.01
freq.    1386.44  E(vib)   ...       0.00
freq.    1404.61  E(vib)   ...       0.00
freq.    1422.82  E(vib)   ...       0.00
freq.    1431.40  E(vib)   ...       0.00
freq.    1462.93  E(vib)   ...       0.00
freq.    1464.28  E(vib)   ...       0.00
freq.    1465.59  E(vib)   ...       0.00
freq.    1465.92  E(vib)   ...       0.00
freq.    1471.66  E(vib)   ...       0.00
freq.    1473.64  E(vib)   ...       0.00
freq.    1473.93  E(vib)   ...       0.00
freq.    1476.94  E(vib)   ...       0.00
freq.    1484.49  E(vib)   ...       0.00
freq.    1486.94  E(vib)   ...       0.00
freq.    1498.72  E(vib)   ...       0.00
freq.    1528.03  E(vib)   ...       0.00
freq.    1533.96  E(vib)   ...       0.00
freq.    1535.46  E(vib)   ...       0.00
freq.    1635.61  E(vib)   ...       0.00
freq.    1645.00  E(vib)   ...       0.00
freq.    1648.54  E(vib)   ...       0.00
freq.    1664.71  E(vib)   ...       0.00
freq.    1696.41  E(vib)   ...       0.00
freq.    1723.76  E(vib)   ...       0.00
freq.    1787.62  E(vib)   ...       0.00
freq.    3039.49  E(vib)   ...       0.00
freq.    3061.32  E(vib)   ...       0.00
freq.    3070.92  E(vib)   ...       0.00
freq.    3073.24  E(vib)   ...       0.00
freq.    3111.83  E(vib)   ...       0.00
freq.    3118.08  E(vib)   ...       0.00
freq.    3138.21  E(vib)   ...       0.00
freq.    3157.80  E(vib)   ...       0.00
freq.    3166.01  E(vib)   ...       0.00
freq.    3173.78  E(vib)   ...       0.00
freq.    3191.04  E(vib)   ...       0.00
freq.    3193.05  E(vib)   ...       0.00
freq.    3202.43  E(vib)   ...       0.00
freq.    3208.54  E(vib)   ...       0.00
freq.    3212.01  E(vib)   ...       0.00
freq.    3222.98  E(vib)   ...       0.00

Rotational constants in cm-1:     0.006239     0.004434     0.003677

                             ****ORCA TERMINATED NORMALLY****
TOTAL RUN TIME: 0 days 2 hours 32 minutes 23 seconds 217 msec
