                         Program Version 5.0.4 -  RELEASE  -
|  1> %pal nprocs 24 end
|  2> ! PBE0 D3BJ def2-TZVP TightSCF OPT FREQ TightOpt
|  3> ! CPCM(dmso)
|  4> %scf
|  5> MaxIter 800
|  6> end
|  7>
|  8> %geom
|  9> MaxIter 800
| 10> MaxStep 0.15
| 11> end
| 12>
| 13> *xyz 0 1
| 14> C      -2.10912700     -2.64158600      3.26644100
| 15> C      -2.87530600     -1.53175400      2.90756100
| 16> C      -2.56557300     -0.84980100      1.74797000
| 17> N      -1.54011000     -1.25012800      0.96958300
| 18> C      -0.78211100     -2.31704800      1.29678400
| 19> C      -1.05455800     -3.03524800      2.44842600
| 20> C      -1.19072100     -0.45979200     -0.21202900
| 21> C      -1.12898300     -1.35943800     -1.43758900
| 22> O      -1.46214900     -2.51868600     -1.44767100
| 23> O      -0.83242800     -0.65426600     -2.51220500
| 24> C      -0.74323200     -1.36737100     -3.73909900
| 25> H      -2.33735800     -3.19694900      4.17891000
| 26> H      -3.11853600      0.02746100      1.40913600
| 27> H       0.00219000     -2.58288800      0.58509300
| 28> H      -0.43326100     -3.89794000      2.69153600
| 29> H      -2.04185000      0.21023500     -0.40158600
| 30> H       0.05791300     -2.11799300     -3.68217700
| 31> H      -0.50881900     -0.62175100     -4.50668700
| 32> H      -3.71233900     -1.19100300      3.51792900
| 33> C       1.21832500     -0.15343800      0.70789800
| 34> C       0.00033700      0.48694300      0.12234800
| 35> C       0.27157900      1.47522200     -1.00047400
| 36> C       1.47323900      1.49295900     -1.70271900
| 37> C       1.71329900      2.42903000     -2.71012100
| 38> C       0.73373000      3.36846500     -3.01888000
| 39> C      -0.47655200      3.38218300     -2.32297400
| 40> C      -0.70640600      2.44134100     -1.31481400
| 41> O      -1.84493000      2.38524200     -0.58662600
| 42> C      -2.87563000      3.31217800     -0.83900100
| 43> N       1.85367100     -1.17972700      0.10766200
| 44> O       2.95241400     -1.58786300      0.52427300
| 45> H      -0.42265300      1.09691400      0.93550400
| 46> H       2.24289400      0.76224700     -1.44870300
| 47> H       2.66438000      2.42218300     -3.24716700
| 48> H       0.90630300      4.10848000     -3.80449600
| 49> H      -1.23215100      4.12957500     -2.56692200
| 50> H      -3.25011400      3.22581600     -1.87223800
| 51> H      -2.53776200      4.34660400     -0.66274400
| 52> H      -3.68613400      3.07270400     -0.13981600
| 53> O       1.29454100     -1.76193000     -0.86308700
| 54> H      -1.69463900     -1.86714200     -3.96937000
| 55> C       1.96268700      0.52389800      1.79786700
| 56> F       3.14924300      1.04413100      1.41258700
| 57> F       1.25194500      1.55987100      2.28171800
| 58> F       2.24176200     -0.26118300      2.85522200
| 59> *
| 60>
| 61>                          ****END OF INPUT****
 Total Charge           Charge          ....    0
 Multiplicity           Mult            ....    1
 Number of Electrons    NEL             ....  206
Dispersion correction           -0.057812956
FINAL SINGLE POINT ENERGY     -1480.227817770734
Dispersion correction            ... done
Dispersion correction           -0.057561821
FINAL SINGLE POINT ENERGY     -1480.229457963567
Dispersion correction            ... done
Dispersion correction           -0.057973573
FINAL SINGLE POINT ENERGY     -1480.228358169579
Dispersion correction            ... done
FINAL SINGLE POINT ENERGY     -1480.230080183648
FINAL SINGLE POINT ENERGY     -1480.229986414393
FINAL SINGLE POINT ENERGY     -1480.230161224080
FINAL SINGLE POINT ENERGY     -1480.230198051768
FINAL SINGLE POINT ENERGY     -1480.230232525410
FINAL SINGLE POINT ENERGY     -1480.230239282993
FINAL SINGLE POINT ENERGY     -1480.230234387188
FINAL SINGLE POINT ENERGY     -1480.230232567429
Dispersion correction           -0.057796960
FINAL SINGLE POINT ENERGY     -1480.230234424670
Dispersion correction            ... done
Dispersion correction           -0.057798737
FINAL SINGLE POINT ENERGY     -1480.230233947677
Dispersion correction            ... done
                    ***********************HURRAY********************

CARTESIAN COORDINATES (ANGSTROEM)
---------------------------------
  C     -2.064877   -2.598692    3.256621
  C     -2.829133   -1.503640    2.877912
  C     -2.523486   -0.847351    1.711244
  N     -1.500977   -1.258439    0.942677
  C     -0.746509   -2.313924    1.291162
  C     -1.015432   -3.005481    2.450165
  C     -1.155055   -0.482965   -0.250059
  C     -1.081554   -1.395797   -1.464242
  O     -1.376709   -2.564270   -1.454684
  O     -0.824408   -0.693136   -2.548879
  C     -0.789359   -1.422361   -3.778677
  H     -2.289122   -3.130629    4.173137
  H     -3.072771    0.014799    1.358205
  H      0.036517   -2.591954    0.600432
  H     -0.397266   -3.854690    2.707430
  H     -2.011006    0.164910   -0.449386
  H     -0.013905   -2.187332   -3.737842
  H     -0.559413   -0.687843   -4.545890
  H     -3.659205   -1.154257    3.476407
  C      1.237457   -0.121142    0.688711
  C      0.015546    0.489686    0.086264
  C      0.269666    1.479249   -1.034233
  C      1.447580    1.494651   -1.761639
  C      1.668216    2.430108   -2.764279
  C      0.694294    3.375692   -3.038504
  C     -0.490581    3.394969   -2.313902
  C     -0.701244    2.452569   -1.313546
  O     -1.821416    2.404968   -0.554091
  C     -2.834714    3.365115   -0.785998
  N      1.889889   -1.145763    0.129619
  O      2.949370   -1.593343    0.627448
  H     -0.429000    1.085121    0.887842
  H      2.207587    0.755147   -1.542434
  H      2.596879    2.418063   -3.322271
  H      0.850800    4.113668   -3.817184
  H     -1.238717    4.146121   -2.528913
  H     -3.223231    3.289133   -1.805264
  H     -2.463434    4.378883   -0.612163
  H     -3.628232    3.140996   -0.076114
  O      1.401226   -1.697133   -0.897972
  H     -1.756299   -1.887104   -3.971511
  C      1.858878    0.486450    1.890613
  F      3.108907    0.964085    1.695738
  F      1.136326    1.538544    2.321843
  F      1.954934   -0.346926    2.951464

 Multiplicity           Mult            ....    1
 Number of Electrons    NEL             ....  206
 Basis Dimension        Dim             ....  970

ORBITAL ENERGIES
----------------

  NO   OCC          E(Eh)            E(eV)
   0   2.0000     -24.802219      -674.9027
   1   2.0000     -24.792598      -674.6409
   2   2.0000     -24.792243      -674.6312
   3   2.0000     -19.263595      -524.1891
   4   2.0000     -19.247946      -523.7632
   5   2.0000     -19.204246      -522.5741
   6   2.0000     -19.190389      -522.1970
   7   2.0000     -19.186172      -522.0823
   8   2.0000     -14.577374      -396.6705
   9   2.0000     -14.512408      -394.9027
  10   2.0000     -10.468809      -284.8708
  11   2.0000     -10.368698      -282.1466
  12   2.0000     -10.312816      -280.6260
  13   2.0000     -10.309385      -280.5326
  14   2.0000     -10.306626      -280.4575
  15   2.0000     -10.289378      -279.9882
  16   2.0000     -10.278357      -279.6883
  17   2.0000     -10.270888      -279.4851
  18   2.0000     -10.269203      -279.4392
  19   2.0000     -10.267682      -279.3978
  20   2.0000     -10.267193      -279.3845
  21   2.0000     -10.265940      -279.3504
  22   2.0000     -10.253933      -279.0237
  23   2.0000     -10.239233      -278.6237
  24   2.0000     -10.227782      -278.3121
  25   2.0000     -10.226232      -278.2699
  26   2.0000     -10.224909      -278.2339
  27   2.0000     -10.219680      -278.0916
  28   2.0000      -1.343798       -36.5666
  29   2.0000      -1.254867       -34.1467
  30   2.0000      -1.247367       -33.9426
  31   2.0000      -1.210442       -32.9378
  32   2.0000      -1.157934       -31.5090
  33   2.0000      -1.109636       -30.1947
  34   2.0000      -1.084222       -29.5032
  35   2.0000      -1.061386       -28.8818
  36   2.0000      -1.025500       -27.9053
  37   2.0000      -0.908699       -24.7269
  38   2.0000      -0.889876       -24.2147
  39   2.0000      -0.870391       -23.6845
  40   2.0000      -0.844344       -22.9758
  41   2.0000      -0.828449       -22.5432
  42   2.0000      -0.792238       -21.5579
  43   2.0000      -0.776619       -21.1329
  44   2.0000      -0.755835       -20.5673
  45   2.0000      -0.736224       -20.0337
  46   2.0000      -0.727927       -19.8079
  47   2.0000      -0.714727       -19.4487
  48   2.0000      -0.710596       -19.3363
  49   2.0000      -0.681705       -18.5501
  50   2.0000      -0.642653       -17.4875
  51   2.0000      -0.622059       -16.9271
  52   2.0000      -0.619355       -16.8535
  53   2.0000      -0.610716       -16.6184
  54   2.0000      -0.608587       -16.5605
  55   2.0000      -0.606371       -16.5002
  56   2.0000      -0.579318       -15.7640
  57   2.0000      -0.568820       -15.4784
  58   2.0000      -0.558735       -15.2039
  59   2.0000      -0.555427       -15.1139
  60   2.0000      -0.542361       -14.7584
  61   2.0000      -0.539147       -14.6709
  62   2.0000      -0.526551       -14.3282
  63   2.0000      -0.518668       -14.1137
  64   2.0000      -0.512103       -13.9350
  65   2.0000      -0.507477       -13.8091
  66   2.0000      -0.502166       -13.6646
  67   2.0000      -0.496961       -13.5230
  68   2.0000      -0.492219       -13.3940
  69   2.0000      -0.489854       -13.3296
  70   2.0000      -0.487379       -13.2623
  71   2.0000      -0.484807       -13.1923
  72   2.0000      -0.482584       -13.1318
  73   2.0000      -0.479675       -13.0526
  74   2.0000      -0.460154       -12.5214
  75   2.0000      -0.453936       -12.3522
  76   2.0000      -0.449633       -12.2351
  77   2.0000      -0.443210       -12.0604
  78   2.0000      -0.442057       -12.0290
  79   2.0000      -0.438280       -11.9262
  80   2.0000      -0.430419       -11.7123
  81   2.0000      -0.424031       -11.5385
  82   2.0000      -0.420569       -11.4443
  83   2.0000      -0.416192       -11.3251
  84   2.0000      -0.412318       -11.2197
  85   2.0000      -0.408111       -11.1053
  86   2.0000      -0.397301       -10.8111
  87   2.0000      -0.389139       -10.5890
  88   2.0000      -0.383607       -10.4385
  89   2.0000      -0.375212       -10.2100
  90   2.0000      -0.367064        -9.9883
  91   2.0000      -0.348812        -9.4917
  92   2.0000      -0.342685        -9.3249
  93   2.0000      -0.341452        -9.2914
  94   2.0000      -0.332193        -9.0394
  95   2.0000      -0.323240        -8.7958
  96   2.0000      -0.310941        -8.4611
  97   2.0000      -0.303478        -8.2581
  98   2.0000      -0.295953        -8.0533
  99   2.0000      -0.273263        -7.4359
 100   2.0000      -0.268422        -7.3041
 101   2.0000      -0.240568        -6.5462
 102   2.0000      -0.230273        -6.2660
 103   0.0000      -0.084764        -2.3065
 104   0.0000      -0.046955        -1.2777
 105   0.0000      -0.021618        -0.5883
 106   0.0000      -0.008383        -0.2281
 107   0.0000       0.003791         0.1031

MULLIKEN ATOMIC CHARGES
-----------------------
   0 C :   -0.083048
   1 C :   -0.128286
   2 C :   -0.038977
   3 N :    0.205109
   4 C :    0.005703
   5 C :   -0.153001
   6 C :   -0.171619
   7 C :    0.320742
   8 O :   -0.383098
   9 O :   -0.204851
  10 C :   -0.271688
  11 H :    0.188769
  12 H :    0.209060
  13 H :    0.184361
  14 H :    0.190625
  15 H :    0.190667
  16 H :    0.154683
  17 H :    0.162681
  18 H :    0.192329
  19 C :   -0.377343
  20 C :    0.291421
  21 C :   -0.036447
  22 C :   -0.207127
  23 C :   -0.208410
  24 C :   -0.144396
  25 C :   -0.312475
  26 C :    0.285757
  27 O :   -0.267806
  28 C :   -0.291534
  29 N :    0.489375
  30 O :   -0.512984
  31 H :    0.112654
  32 H :    0.156175
  33 H :    0.144910
  34 H :    0.150640
  35 H :    0.162624
  36 H :    0.152626
  37 H :    0.154133
  38 H :    0.163683
  39 O :   -0.508684
  40 H :    0.155610
  41 C :    0.418483
  42 F :   -0.179103
  43 F :   -0.180704
  44 F :   -0.181236
Sum of atomic charges:   -0.0000000

LOEWDIN ATOMIC CHARGES
----------------------
   0 C :   -0.053783
   1 C :   -0.098747
   2 C :   -0.074247
   3 N :    0.342421
   4 C :   -0.080079
   5 C :   -0.099160
   6 C :   -0.147795
   7 C :   -0.499425
   8 O :    0.090932
   9 O :    0.291734
  10 C :   -0.299919
  11 H :    0.172176
  12 H :    0.177146
  13 H :    0.171693
  14 H :    0.173960
  15 H :    0.193117
  16 H :    0.120067
  17 H :    0.123160
  18 H :    0.174031
  19 C :   -0.252171
  20 C :   -0.166338
  21 C :   -0.101725
  22 C :   -0.110287
  23 C :   -0.167128
  24 C :   -0.149124
  25 C :   -0.143412
  26 C :   -0.231759
  27 O :    0.246101
  28 C :   -0.324781
  29 N :   -0.060424
  30 O :   -0.201121
  31 H :    0.195358
  32 H :    0.160630
  33 H :    0.151455
  34 H :    0.153730
  35 H :    0.159864
  36 H :    0.117775
  37 H :    0.118477
  38 H :    0.122004
  39 O :   -0.172556
  40 H :    0.120067
  41 C :   -0.667104
  42 F :    0.168653
  43 F :    0.188484
  44 F :    0.168054

  Mayer bond orders larger than 0.100000
B(  0-C ,  1-C ) :   1.3963 B(  0-C ,  5-C ) :   1.4219 B(  0-C , 11-H ) :   0.9418
B(  1-C ,  2-C ) :   1.4579 B(  1-C , 18-H ) :   0.9435 B(  2-C ,  3-N ) :   1.2800
B(  2-C , 12-H ) :   0.9294 B(  3-N ,  4-C ) :   1.2705 B(  3-N ,  6-C ) :   0.8722
B(  4-C ,  5-C ) :   1.4517 B(  4-C , 13-H ) :   0.9053 B(  5-C , 14-H ) :   0.9440
B(  6-C ,  7-C ) :   1.0167 B(  6-C , 15-H ) :   0.9025 B(  6-C , 20-C ) :   0.8163
B(  7-C ,  8-O ) :   1.9809 B(  7-C ,  9-O ) :   1.2612 B(  9-O , 10-C ) :   0.8912
B( 10-C , 16-H ) :   0.9676 B( 10-C , 17-H ) :   0.9644 B( 10-C , 40-H ) :   0.9655
B( 19-C , 20-C ) :   0.8691 B( 19-C , 29-N ) :   1.4222 B( 19-C , 30-O ) :   0.1164
B( 19-C , 39-O ) :   0.1082 B( 19-C , 41-C ) :   1.1388 B( 20-C , 21-C ) :   0.9642
B( 20-C , 31-H ) :   0.9382 B( 21-C , 22-C ) :   1.3766 B( 21-C , 26-C ) :   1.3071
B( 22-C , 23-C ) :   1.4021 B( 22-C , 32-H ) :   0.9771 B( 23-C , 24-C ) :   1.4007
B( 23-C , 33-H ) :   0.9851 B( 24-C , 25-C ) :   1.3923 B( 24-C , 34-H ) :   0.9687
B( 25-C , 26-C ) :   1.3713 B( 25-C , 35-H ) :   0.9621 B( 26-C , 27-O ) :   1.0868
B( 27-O , 28-C ) :   0.9372 B( 28-C , 36-H ) :   0.9625 B( 28-C , 37-H ) :   0.9613
B( 28-C , 38-H ) :   0.9650 B( 29-N , 30-O ) :   1.4114 B( 29-N , 39-O ) :   1.2894
B( 41-C , 42-F ) :   1.1503 B( 41-C , 43-F ) :   1.1212 B( 41-C , 44-F ) :   1.1472

Dispersion correction           -0.057798334
FINAL SINGLE POINT ENERGY     -1480.230233381094

DIPOLE MOMENT
-------------
                                X             Y             Z
Electronic contribution:     16.62518      -3.86039      20.15947
Nuclear contribution   :    -23.63311       5.03131     -19.10415
                        -----------------------------------------
Total Dipole Moment    :     -7.00793       1.17092       1.05531
                        -----------------------------------------
Magnitude (a.u.)       :      7.18302
Magnitude (Debye)      :     18.25778

Dispersion correction in the Hessian             ... done   (      0.7 sec)

VIBRATIONAL FREQUENCIES
-----------------------

Scaling factor for frequencies =  1.000000000  (already applied!)

   0:         0.00 cm**-1
   1:         0.00 cm**-1
   2:         0.00 cm**-1
   3:         0.00 cm**-1
   4:         0.00 cm**-1
   5:         0.00 cm**-1
   6:        24.20 cm**-1
   7:        34.70 cm**-1
   8:        41.68 cm**-1
   9:        42.64 cm**-1
  10:        51.39 cm**-1
  11:        64.54 cm**-1
  12:        80.92 cm**-1
  13:        87.23 cm**-1
  14:        96.49 cm**-1
  15:       103.49 cm**-1
  16:       117.55 cm**-1
  17:       132.16 cm**-1
  18:       143.44 cm**-1
  19:       150.53 cm**-1
  20:       167.75 cm**-1
  21:       176.10 cm**-1
  22:       179.38 cm**-1
  23:       209.95 cm**-1
  24:       224.36 cm**-1
  25:       249.13 cm**-1
  26:       251.31 cm**-1
  27:       255.58 cm**-1
  28:       271.79 cm**-1
  29:       301.17 cm**-1
  30:       306.56 cm**-1
  31:       316.20 cm**-1
  32:       370.34 cm**-1
  33:       372.50 cm**-1
  34:       420.62 cm**-1
  35:       434.10 cm**-1
  36:       452.79 cm**-1
  37:       463.18 cm**-1
  38:       480.62 cm**-1
  39:       502.72 cm**-1
  40:       536.18 cm**-1
  41:       559.16 cm**-1
  42:       576.32 cm**-1
  43:       580.89 cm**-1
  44:       603.58 cm**-1
  45:       615.08 cm**-1
  46:       648.05 cm**-1
  47:       659.62 cm**-1
  48:       672.52 cm**-1
  49:       693.84 cm**-1
  50:       714.20 cm**-1
  51:       731.47 cm**-1
  52:       756.60 cm**-1
  53:       768.35 cm**-1
  54:       788.78 cm**-1
  55:       803.11 cm**-1
  56:       804.35 cm**-1
  57:       818.08 cm**-1
  58:       836.67 cm**-1
  59:       856.69 cm**-1
  60:       873.29 cm**-1
  61:       890.00 cm**-1
  62:       924.31 cm**-1
  63:       929.41 cm**-1
  64:       956.06 cm**-1
  65:       984.81 cm**-1
  66:       994.02 cm**-1
  67:      1013.65 cm**-1
  68:      1028.99 cm**-1
  69:      1046.48 cm**-1
  70:      1049.68 cm**-1
  71:      1061.86 cm**-1
  72:      1071.95 cm**-1
  73:      1073.52 cm**-1
  74:      1082.95 cm**-1
  75:      1084.71 cm**-1
  76:      1088.65 cm**-1
  77:      1112.55 cm**-1
  78:      1130.55 cm**-1
  79:      1139.35 cm**-1
  80:      1170.05 cm**-1
  81:      1171.30 cm**-1
  82:      1172.56 cm**-1
  83:      1173.32 cm**-1
  84:      1196.74 cm**-1
  85:      1208.84 cm**-1
  86:      1212.22 cm**-1
  87:      1229.46 cm**-1
  88:      1232.54 cm**-1
  89:      1249.53 cm**-1
  90:      1267.84 cm**-1
  91:      1275.92 cm**-1
  92:      1291.03 cm**-1
  93:      1295.84 cm**-1
  94:      1318.35 cm**-1
  95:      1330.24 cm**-1
  96:      1356.06 cm**-1
  97:      1375.85 cm**-1
  98:      1380.65 cm**-1
  99:      1390.78 cm**-1
 100:      1426.12 cm**-1
 101:      1447.44 cm**-1
 102:      1465.35 cm**-1
 103:      1466.03 cm**-1
 104:      1471.99 cm**-1
 105:      1473.40 cm**-1
 106:      1474.47 cm**-1
 107:      1484.39 cm**-1
 108:      1498.18 cm**-1
 109:      1519.37 cm**-1
 110:      1529.63 cm**-1
 111:      1533.31 cm**-1
 112:      1535.69 cm**-1
 113:      1644.09 cm**-1
 114:      1647.87 cm**-1
 115:      1664.53 cm**-1
 116:      1697.49 cm**-1
 117:      1787.24 cm**-1
 118:      3038.55 cm**-1
 119:      3072.76 cm**-1
 120:      3083.19 cm**-1
 121:      3110.60 cm**-1
 122:      3114.42 cm**-1
 123:      3156.99 cm**-1
 124:      3166.48 cm**-1
 125:      3190.46 cm**-1
 126:      3193.11 cm**-1
 127:      3207.56 cm**-1
 128:      3220.86 cm**-1
 129:      3222.01 cm**-1
 130:      3230.53 cm**-1
 131:      3237.50 cm**-1
 132:      3240.40 cm**-1
 133:      3246.91 cm**-1
 134:      3252.43 cm**-1

IR SPECTRUM
-----------

 Mode   freq       eps      Int      T**2         TX        TY        TZ
       cm**-1   L/(mol*cm) km/mol    a.u.
----------------------------------------------------------------------------
  6:     24.20   0.000210    1.06  0.002706  (-0.049615 -0.005819 -0.014526)
  7:     34.70   0.000103    0.52  0.000924  (-0.026110 -0.015517  0.001015)
  8:     41.68   0.000577    2.91  0.004318  ( 0.011626 -0.052857 -0.037272)
  9:     42.64   0.000226    1.14  0.001656  ( 0.025601  0.021652 -0.023057)
 10:     51.39   0.000840    4.25  0.005103  (-0.063577 -0.023195 -0.022858)
 11:     64.54   0.000549    2.78  0.002655  (-0.047124 -0.017750  0.010931)
 12:     80.92   0.001730    8.74  0.006670  ( 0.070465 -0.022894  0.034360)
 13:     87.23   0.000579    2.92  0.002070  ( 0.033247  0.027902  0.013640)
 14:     96.49   0.001321    6.67  0.004271  (-0.005903  0.015625  0.063185)
 15:    103.49   0.001033    5.22  0.003116  (-0.029425 -0.046700  0.008307)
 16:    117.55   0.000940    4.75  0.002495  ( 0.024855  0.016327 -0.040133)
 17:    132.16   0.000849    4.29  0.002006  (-0.006208 -0.041171 -0.016494)
 18:    143.44   0.000085    0.43  0.000185  ( 0.011687 -0.005974  0.003585)
 19:    150.53   0.000831    4.20  0.001723  (-0.013776 -0.023201  0.031545)
 20:    167.75   0.000097    0.49  0.000180  ( 0.000409  0.013191  0.002476)
 21:    176.10   0.001469    7.42  0.002603  (-0.027512 -0.032119  0.028531)
 22:    179.38   0.002908   14.70  0.005059  (-0.054881  0.001175 -0.045230)
 23:    209.95   0.001007    5.09  0.001497  (-0.021243  0.026718 -0.018206)
 24:    224.36   0.001508    7.62  0.002097  ( 0.043497  0.009360  0.010826)
 25:    249.13   0.000017    0.09  0.000022  (-0.001067 -0.003734 -0.002561)
 26:    251.31   0.000141    0.71  0.000175  (-0.005200 -0.009888 -0.007074)
 27:    255.58   0.002887   14.59  0.003525  (-0.046233 -0.018046  0.032579)
 28:    271.79   0.003291   16.63  0.003778  ( 0.006591  0.031730 -0.052229)
 29:    301.17   0.000434    2.20  0.000450  ( 0.000295  0.003859 -0.020862)
 30:    306.56   0.001312    6.63  0.001335  (-0.030974 -0.009573  0.016862)
 31:    316.20   0.000141    0.71  0.000139  ( 0.002949 -0.011348 -0.001248)
 32:    370.34   0.003941   19.92  0.003321  ( 0.008415  0.004243 -0.056852)
 33:    372.50   0.001241    6.27  0.001039  ( 0.000973  0.020329  0.025005)
 34:    420.62   0.000287    1.45  0.000213  ( 0.010754  0.006767  0.007190)
 35:    434.10   0.000901    4.55  0.000648  (-0.012207 -0.004375 -0.021904)
 36:    452.79   0.000272    1.37  0.000188  (-0.002586 -0.009898 -0.009102)
 37:    463.18   0.000151    0.76  0.000101  (-0.006044 -0.006631 -0.004574)
 38:    480.62   0.000065    0.33  0.000042  (-0.004586  0.003204  0.003261)
 39:    502.72   0.001096    5.54  0.000681  ( 0.005795  0.017464 -0.018491)
 40:    536.18   0.004975   25.14  0.002896  ( 0.038154  0.007032  0.037289)
 41:    559.16   0.002183   11.03  0.001218  ( 0.021870  0.022796  0.014848)
 42:    576.32   0.002325   11.75  0.001259  ( 0.028998  0.014059 -0.014844)
 43:    580.89   0.007837   39.60  0.004210  (-0.049537 -0.000030 -0.041906)
 44:    603.58   0.002811   14.20  0.001453  (-0.033819  0.013133 -0.011707)
 45:    615.08   0.002029   10.25  0.001029  ( 0.013996  0.004565 -0.028509)
 46:    648.05   0.003506   17.72  0.001688  ( 0.009264  0.038450  0.011137)
 47:    659.62   0.001105    5.59  0.000523  ( 0.021760  0.006967 -0.000932)
 48:    672.52   0.004463   22.55  0.002071  (-0.005277 -0.042620 -0.015050)
 49:    693.84   0.001933    9.77  0.000869  (-0.012097  0.026655  0.003526)
 50:    714.20   0.031112  157.23  0.013594  ( 0.084850  0.063771  0.048246)
 51:    731.47   0.000623    3.15  0.000266  ( 0.008266  0.006175 -0.012630)
 52:    756.60   0.002903   14.67  0.001198  ( 0.012203  0.024123  0.021604)
 53:    768.35   0.019158   96.82  0.007781  ( 0.037903  0.053244  0.059240)
 54:    788.78   0.002869   14.50  0.001135  (-0.015518  0.018224  0.023713)
 55:    803.11   0.005249   26.53  0.002040  (-0.013562 -0.010292  0.041832)
 56:    804.35   0.007061   35.68  0.002740  (-0.043217 -0.024015 -0.017179)
 57:    818.08   0.000509    2.57  0.000194  ( 0.005945  0.005504 -0.011340)
 58:    836.67   0.004043   20.43  0.001508  ( 0.009021  0.024833  0.028462)
 59:    856.69   0.004495   22.71  0.001637  ( 0.022808  0.015636 -0.029538)
 60:    873.29   0.000385    1.94  0.000137  (-0.010950 -0.003049  0.002877)
 61:    890.00   0.000209    1.06  0.000073  (-0.002419 -0.005900 -0.005708)
 62:    924.31   0.005864   29.64  0.001980  ( 0.028930  0.016221  0.029661)
 63:    929.41   0.015599   78.83  0.005237  (-0.051118  0.031420 -0.040463)
 64:    956.06   0.000139    0.70  0.000045  ( 0.004913 -0.004269  0.001724)
 65:    984.81   0.000134    0.67  0.000042  (-0.001783  0.005700  0.002579)
 66:    994.02   0.000808    4.08  0.000254  (-0.010181 -0.001324 -0.012172)
 67:   1013.65   0.045578  230.33  0.014032  ( 0.041485  0.044284  0.101733)
 68:   1028.99   0.008153   41.20  0.002473  (-0.002337 -0.026756 -0.041847)
 69:   1046.48   0.005536   27.97  0.001651  (-0.008952 -0.035852 -0.016887)
 70:   1049.68   0.000237    1.20  0.000070  (-0.005740 -0.000158  0.006122)
 71:   1061.86   0.000365    1.84  0.000107  ( 0.001148  0.001124  0.010228)
 72:   1071.95   0.013211   66.77  0.003846  ( 0.036618 -0.038437  0.032060)
 73:   1073.52   0.092620  468.06  0.026924  (-0.082684 -0.120651  0.074369)
 74:   1082.95   0.041327  208.85  0.011909  ( 0.055559 -0.052136 -0.078126)
 75:   1084.71   0.001007    5.09  0.000290  (-0.004547 -0.001719 -0.016312)
 76:   1088.65   0.053821  271.99  0.015428  ( 0.041026 -0.084467 -0.081302)
 77:   1112.55   0.014253   72.03  0.003998  ( 0.046160 -0.034443  0.026096)
 78:   1130.55   0.003938   19.90  0.001087  ( 0.010761 -0.018471  0.025102)
 79:   1139.35   0.014433   72.94  0.003953  (-0.048586  0.039901  0.000702)
 80:   1170.05   0.000255    1.29  0.000068  ( 0.007509 -0.001277  0.003155)
 81:   1171.30   0.000111    0.56  0.000030  ( 0.000894  0.002286  0.004853)
 82:   1172.56   0.001279    6.46  0.000340  (-0.016326  0.004135  0.007534)
 83:   1173.32   0.002046   10.34  0.000544  (-0.015688  0.016836 -0.003829)
 84:   1196.74   0.002382   12.04  0.000621  ( 0.009394 -0.022813 -0.003517)
 85:   1208.84   0.001188    6.00  0.000307  (-0.001857 -0.010836  0.013634)
 86:   1212.22   0.001622    8.20  0.000418  ( 0.017949 -0.006047 -0.007673)
 87:   1229.46   0.007788   39.36  0.001977  ( 0.002347 -0.004546  0.044165)
 88:   1232.54   0.006752   34.12  0.001710  ( 0.025181  0.011850 -0.030580)
 89:   1249.53   0.020264  102.40  0.005061  (-0.002249  0.051267 -0.049269)
 90:   1267.84   0.038357  193.84  0.009441  (-0.038092  0.086681  0.021829)
 91:   1275.92   0.098757  499.08  0.024154  ( 0.039853 -0.022748 -0.148486)
 92:   1291.03   0.017491   88.39  0.004228  (-0.061666  0.002934 -0.020410)
 93:   1295.84   0.047850  241.81  0.011523  (-0.105793 -0.005647  0.017296)
 94:   1318.35   0.012610   63.72  0.002985  ( 0.007861 -0.000542 -0.054062)
 95:   1330.24   0.028088  141.94  0.006589  (-0.024848  0.076598  0.010219)
 96:   1356.06   0.016767   84.73  0.003858  (-0.003021 -0.015156 -0.060164)
 97:   1375.85   0.041879  211.64  0.009499  (-0.050698 -0.028211 -0.078312)
 98:   1380.65   0.034891  176.33  0.007886  ( 0.043179  0.027159  0.072693)
 99:   1390.78   0.045133  228.08  0.010127  (-0.087696  0.007329 -0.048812)
100:   1426.12   0.024374  123.18  0.005334  (-0.026039  0.026821  0.062739)
101:   1447.44   0.046518  235.08  0.010029  ( 0.051382  0.031775  0.079870)
102:   1465.35   0.011756   59.41  0.002503  (-0.049962  0.002659 -0.000463)
103:   1466.03   0.002563   12.95  0.000545  ( 0.021197 -0.003163  0.009282)
104:   1471.99   0.011876   60.02  0.002518  (-0.021569  0.012447  0.043561)
105:   1473.40   0.003051   15.42  0.000646  (-0.010420 -0.015348 -0.017382)
106:   1474.47   0.002958   14.95  0.000626  (-0.002017 -0.022506  0.010741)
107:   1484.39   0.005900   29.82  0.001240  ( 0.029103 -0.001954 -0.019737)
108:   1498.18   0.022034  111.35  0.004589  (-0.062099  0.020095  0.018149)
109:   1519.37   0.201568  1018.64  0.041400  ( 0.148865 -0.134304 -0.034670)
110:   1529.63   0.004797   24.24  0.000979  (-0.014018  0.023023 -0.015876)
111:   1533.31   0.010407   52.59  0.002118  ( 0.040398  0.014245 -0.016825)
112:   1535.69   0.014195   71.74  0.002885  ( 0.040572  0.001313 -0.035168)
113:   1644.09   0.002213   11.18  0.000420  ( 0.015967 -0.008372 -0.009745)
114:   1647.87   0.003101   15.67  0.000587  ( 0.017901 -0.015517  0.005099)
115:   1664.53   0.011901   60.14  0.002231  (-0.040401  0.003536  0.024218)
116:   1697.49   0.019099   96.52  0.003511  ( 0.014296  0.027843 -0.050314)
117:   1787.24   0.109185  551.78  0.019064  ( 0.045066  0.125944 -0.034228)
118:   3038.55   0.013086   66.13  0.001344  (-0.026760  0.024730 -0.004041)
119:   3072.76   0.006369   32.19  0.000647  ( 0.000147  0.011083  0.022890)
120:   3083.19   0.000389    1.97  0.000039  (-0.005126 -0.003618  0.000160)
121:   3110.60   0.007405   37.42  0.000743  ( 0.011490  0.016646  0.018270)
122:   3114.42   0.004041   20.42  0.000405  ( 0.004462 -0.019327 -0.003391)
123:   3156.99   0.003665   18.52  0.000362  (-0.018576  0.003050 -0.002822)
124:   3166.48   0.003714   18.77  0.000366  ( 0.013271  0.004552 -0.013007)
125:   3190.46   0.002115   10.69  0.000207  ( 0.002770  0.011067 -0.008761)
126:   3193.11   0.000444    2.24  0.000043  ( 0.001466 -0.005059  0.003955)
127:   3207.56   0.002538   12.83  0.000247  (-0.006877 -0.007806  0.011778)
128:   3220.86   0.000179    0.91  0.000017  ( 0.001853  0.001875 -0.003231)
129:   3222.01   0.002569   12.98  0.000249  (-0.014653  0.002380  0.005333)
130:   3230.53   0.000449    2.27  0.000043  (-0.002569  0.005445 -0.002668)
131:   3237.50   0.003996   20.19  0.000385  (-0.013680 -0.005231  0.013063)
132:   3240.40   0.002765   13.98  0.000266  ( 0.007477  0.007351 -0.012505)
133:   3246.91   0.005139   25.97  0.000494  ( 0.019303 -0.001663 -0.010888)
134:   3252.43   0.001141    5.77  0.000109  ( 0.004652 -0.009095  0.002260)

--------------------------
THERMOCHEMISTRY AT 298.15K
--------------------------

Temperature         ... 298.15 K
Pressure            ... 1.00 atm
Total Mass          ... 398.34 AMU

Throughout the following assumptions are being made:
  (1) The electronic state is orbitally nondegenerate
  (2) There are no thermally accessible electronically excited states
  (3) Hindered rotations indicated by low frequency modes are not
      treated as such but are treated as vibrations and this may
      cause some error
  (4) All equations used are the standard statistical mechanics
      equations for an ideal gas
  (5) All vibrations are strictly harmonic

freq.      24.20  E(vib)   ...       0.56
freq.      34.70  E(vib)   ...       0.54
freq.      41.68  E(vib)   ...       0.53
freq.      42.64  E(vib)   ...       0.53
freq.      51.39  E(vib)   ...       0.52
freq.      64.54  E(vib)   ...       0.51
freq.      80.92  E(vib)   ...       0.48
freq.      87.23  E(vib)   ...       0.48
freq.      96.49  E(vib)   ...       0.47
freq.     103.49  E(vib)   ...       0.46
freq.     117.55  E(vib)   ...       0.44
freq.     132.16  E(vib)   ...       0.42
freq.     143.44  E(vib)   ...       0.41
freq.     150.53  E(vib)   ...       0.40
freq.     167.75  E(vib)   ...       0.38
freq.     176.10  E(vib)   ...       0.38
freq.     179.38  E(vib)   ...       0.37
freq.     209.95  E(vib)   ...       0.34
freq.     224.36  E(vib)   ...       0.33
freq.     249.13  E(vib)   ...       0.31
freq.     251.31  E(vib)   ...       0.30
freq.     255.58  E(vib)   ...       0.30
freq.     271.79  E(vib)   ...       0.29
freq.     301.17  E(vib)   ...       0.26
freq.     306.56  E(vib)   ...       0.26
freq.     316.20  E(vib)   ...       0.25
freq.     370.34  E(vib)   ...       0.21
freq.     372.50  E(vib)   ...       0.21
freq.     420.62  E(vib)   ...       0.18
freq.     434.10  E(vib)   ...       0.17
freq.     452.79  E(vib)   ...       0.16
freq.     463.18  E(vib)   ...       0.16
freq.     480.62  E(vib)   ...       0.15
freq.     502.72  E(vib)   ...       0.14
freq.     536.18  E(vib)   ...       0.12
freq.     559.16  E(vib)   ...       0.12
freq.     576.32  E(vib)   ...       0.11
freq.     580.89  E(vib)   ...       0.11
freq.     603.58  E(vib)   ...       0.10
freq.     615.08  E(vib)   ...       0.10
freq.     648.05  E(vib)   ...       0.08
freq.     659.62  E(vib)   ...       0.08
freq.     672.52  E(vib)   ...       0.08
freq.     693.84  E(vib)   ...       0.07
freq.     714.20  E(vib)   ...       0.07
freq.     731.47  E(vib)   ...       0.06
freq.     756.60  E(vib)   ...       0.06
freq.     768.35  E(vib)   ...       0.06
freq.     788.78  E(vib)   ...       0.05
freq.     803.11  E(vib)   ...       0.05
freq.     804.35  E(vib)   ...       0.05
freq.     818.08  E(vib)   ...       0.05
freq.     836.67  E(vib)   ...       0.04
freq.     856.69  E(vib)   ...       0.04
freq.     873.29  E(vib)   ...       0.04
freq.     890.00  E(vib)   ...       0.04
freq.     924.31  E(vib)   ...       0.03
freq.     929.41  E(vib)   ...       0.03
freq.     956.06  E(vib)   ...       0.03
freq.     984.81  E(vib)   ...       0.02
freq.     994.02  E(vib)   ...       0.02
freq.    1013.65  E(vib)   ...       0.02
freq.    1028.99  E(vib)   ...       0.02
freq.    1046.48  E(vib)   ...       0.02
freq.    1049.68  E(vib)   ...       0.02
freq.    1061.86  E(vib)   ...       0.02
freq.    1071.95  E(vib)   ...       0.02
freq.    1073.52  E(vib)   ...       0.02
freq.    1082.95  E(vib)   ...       0.02
freq.    1084.71  E(vib)   ...       0.02
freq.    1088.65  E(vib)   ...       0.02
freq.    1112.55  E(vib)   ...       0.01
freq.    1130.55  E(vib)   ...       0.01
freq.    1139.35  E(vib)   ...       0.01
freq.    1170.05  E(vib)   ...       0.01
freq.    1171.30  E(vib)   ...       0.01
freq.    1172.56  E(vib)   ...       0.01
freq.    1173.32  E(vib)   ...       0.01
freq.    1196.74  E(vib)   ...       0.01
freq.    1208.84  E(vib)   ...       0.01
freq.    1212.22  E(vib)   ...       0.01
freq.    1229.46  E(vib)   ...       0.01
freq.    1232.54  E(vib)   ...       0.01
freq.    1249.53  E(vib)   ...       0.01
freq.    1267.84  E(vib)   ...       0.01
freq.    1275.92  E(vib)   ...       0.01
freq.    1291.03  E(vib)   ...       0.01
freq.    1295.84  E(vib)   ...       0.01
freq.    1318.35  E(vib)   ...       0.01
freq.    1330.24  E(vib)   ...       0.01
freq.    1356.06  E(vib)   ...       0.01
freq.    1375.85  E(vib)   ...       0.01
freq.    1380.65  E(vib)   ...       0.01
freq.    1390.78  E(vib)   ...       0.00
freq.    1426.12  E(vib)   ...       0.00
freq.    1447.44  E(vib)   ...       0.00
freq.    1465.35  E(vib)   ...       0.00
freq.    1466.03  E(vib)   ...       0.00
freq.    1471.99  E(vib)   ...       0.00
freq.    1473.40  E(vib)   ...       0.00
freq.    1474.47  E(vib)   ...       0.00
freq.    1484.39  E(vib)   ...       0.00
freq.    1498.18  E(vib)   ...       0.00
freq.    1519.37  E(vib)   ...       0.00
freq.    1529.63  E(vib)   ...       0.00
freq.    1533.31  E(vib)   ...       0.00
freq.    1535.69  E(vib)   ...       0.00
freq.    1644.09  E(vib)   ...       0.00
freq.    1647.87  E(vib)   ...       0.00
freq.    1664.53  E(vib)   ...       0.00
freq.    1697.49  E(vib)   ...       0.00
freq.    1787.24  E(vib)   ...       0.00
freq.    3038.55  E(vib)   ...       0.00
freq.    3072.76  E(vib)   ...       0.00
freq.    3083.19  E(vib)   ...       0.00
freq.    3110.60  E(vib)   ...       0.00
freq.    3114.42  E(vib)   ...       0.00
freq.    3156.99  E(vib)   ...       0.00
freq.    3166.48  E(vib)   ...       0.00
freq.    3190.46  E(vib)   ...       0.00
freq.    3193.11  E(vib)   ...       0.00
freq.    3207.56  E(vib)   ...       0.00
freq.    3220.86  E(vib)   ...       0.00
freq.    3222.01  E(vib)   ...       0.00
freq.    3230.53  E(vib)   ...       0.00
freq.    3237.50  E(vib)   ...       0.00
freq.    3240.40  E(vib)   ...       0.00
freq.    3246.91  E(vib)   ...       0.00
freq.    3252.43  E(vib)   ...       0.00

------------
INNER ENERGY
------------

The inner energy is: U= E(el) + E(ZPE) + E(vib) + E(rot) + E(trans)
    E(el)   - is the total energy from the electronic structure calculation
              = E(kin-el) + E(nuc-el) + E(el-el) + E(nuc-nuc)
    E(ZPE)  - the the zero temperature vibrational energy from the frequency calculation
    E(vib)  - the the finite temperature correction to E(ZPE) due to population
              of excited vibrational states
    E(rot)  - is the rotational thermal energy
    E(trans)- is the translational thermal energy

Summary of contributions to the inner energy U:

Rotational constants in cm-1:     0.007638     0.005692     0.005013

                             ****ORCA TERMINATED NORMALLY****
TOTAL RUN TIME: 0 days 1 hours 42 minutes 24 seconds 555 msec
