                         Program Version 5.0.4 -  RELEASE  -
|  1> %pal nprocs 24 end
|  2> ! PBE0 D3BJ def2-TZVP TightSCF OPT FREQ TightOpt
|  3> ! CPCM(dmso)
|  4> %scf
|  5> MaxIter 800
|  6> end
|  7>
|  8> %geom
|  9> MaxIter 800
| 10> MaxStep 0.15
| 11> end
| 12>
| 13> *xyz 0 1
| 14> C      -4.09313100      1.99397000     -0.44471000
| 15> C      -3.14144600      2.44376100     -1.36113000
| 16> C      -1.80550400      2.20132900     -1.11343200
| 17> N      -1.42052300      1.54701200      0.00084700
| 18> C      -2.32256200      1.09399600      0.89610400
| 19> C      -3.67430300      1.31531100      0.69550900
| 20> C      -0.00915600      1.19761500      0.16511300
| 21> C       0.47942400      1.58729000      1.55033300
| 22> O      -0.18069800      2.16216800      2.38110400
| 23> O       1.77338500      1.35089500      1.65519000
| 24> C       2.37724000      1.64083200      2.90921700
| 25> H      -5.15595900      2.17315800     -0.62127000
| 26> H      -1.00939200      2.51095600     -1.79237100
| 27> H      -1.91955400      0.59643200      1.77694100
| 28> H      -4.38535200      0.94744500      1.43587300
| 29> H       0.55809500      1.83795100     -0.52523900
| 30> H       2.28211900      2.70904700      3.15007300
| 31> H       3.43292000      1.36635100      2.80796200
| 32> C      -0.76345400     -1.28489000      0.16835000
| 33> C       0.20175400     -0.26345800     -0.35260900
| 34> C       1.66428800     -0.66786900     -0.36065700
| 35> C       2.16690000     -1.72598700      0.39251200
| 36> C       3.51305300     -2.09174400      0.32963100
| 37> C       4.37620300     -1.38937000     -0.50575500
| 38> C       3.89840000     -0.33540000     -1.28646900
| 39> C       2.54824200      0.02009600     -1.21896600
| 40> O       2.00114500      1.01792400     -1.95164800
| 41> C       2.81148200      1.74300300     -2.84700000
| 42> N      -0.80578800     -1.53447000      1.51537900
| 43> O      -1.48156500     -2.43747400      2.01172700
| 44> H      -0.05894200     -0.16027500     -1.41449600
| 45> H       1.49289400     -2.27850000      1.04739900
| 46> H       3.88130100     -2.92384300      0.93396100
| 47> H       5.43325300     -1.66126500     -0.56375300
| 48> H       4.58051800      0.19927200     -1.94805200
| 49> H       2.15874500      2.48122000     -3.32870500
| 50> H       3.24641300      1.08566900     -3.61790800
| 51> H       3.62517000      2.26802700     -2.31988600
| 52> O      -0.13783300     -0.77272000      2.26260900
| 53> H       1.90527600      1.04530700      3.70356500
| 54> H      -3.42623500      2.97850000     -2.26783700
| 55> C      -1.64064300     -2.01063800     -0.72734200
| 56> O      -2.45118300     -2.87916000     -0.46437600
| 57> O      -1.48583100     -1.58199900     -2.00957200
| 58> C      -2.33656300     -2.17582700     -2.96963500
| 59> H      -2.07901300     -1.71911700     -3.93290700
| 60> H      -2.18404100     -3.26450700     -3.01961300
| 61> H      -3.39497600     -1.98342000     -2.73681400
| 62> *
| 63>
| 64>                          ****END OF INPUT****
 Total Charge           Charge          ....    0
 Multiplicity           Mult            ....    1
 Number of Electrons    NEL             ....  204
Dispersion correction           -0.061699031
FINAL SINGLE POINT ENERGY     -1371.083357855968
Dispersion correction            ... done
Dispersion correction           -0.061520997
FINAL SINGLE POINT ENERGY     -1371.084868767387
Dispersion correction            ... done
Dispersion correction           -0.061889631
FINAL SINGLE POINT ENERGY     -1371.083490776112
Dispersion correction            ... done
FINAL SINGLE POINT ENERGY     -1371.085299771907
FINAL SINGLE POINT ENERGY     -1371.085195893303
FINAL SINGLE POINT ENERGY     -1371.085359566118
FINAL SINGLE POINT ENERGY     -1371.085346992747
FINAL SINGLE POINT ENERGY     -1371.085371485287
FINAL SINGLE POINT ENERGY     -1371.085369567123
FINAL SINGLE POINT ENERGY     -1371.085370410246
FINAL SINGLE POINT ENERGY     -1371.085372257966
FINAL SINGLE POINT ENERGY     -1371.085371915102
FINAL SINGLE POINT ENERGY     -1371.085372439790
Dispersion correction           -0.061593667
FINAL SINGLE POINT ENERGY     -1371.085373472222
Dispersion correction            ... done
Dispersion correction           -0.061593844
FINAL SINGLE POINT ENERGY     -1371.085373119341
Dispersion correction            ... done
                    ***********************HURRAY********************

CARTESIAN COORDINATES (ANGSTROEM)
---------------------------------
  C     -4.090934    2.024951   -0.434817
  C     -3.137898    2.465414   -1.342780
  C     -1.812182    2.208072   -1.096043
  N     -1.436483    1.544406    0.010294
  C     -2.342869    1.104953    0.899443
  C     -3.683973    1.340644    0.698041
  C     -0.024860    1.191498    0.172577
  C      0.473005    1.592256    1.549428
  O     -0.183919    2.166965    2.381077
  O      1.770159    1.370322    1.637910
  C      2.387648    1.722325    2.878374
  H     -5.142497    2.215548   -0.610741
  H     -1.018735    2.510902   -1.765975
  H     -1.956688    0.602138    1.772367
  H     -4.394145    0.983031    1.430905
  H      0.531090    1.830580   -0.515072
  H      2.297305    2.793758    3.057369
  H      3.432043    1.440502    2.774013
  C     -0.767304   -1.292770    0.176736
  C      0.185975   -0.265392   -0.352958
  C      1.644685   -0.677025   -0.382749
  C      2.128319   -1.770166    0.317450
  C      3.462166   -2.152201    0.244596
  C      4.333968   -1.431758   -0.552961
  C      3.874699   -0.346211   -1.287618
  C      2.537080    0.024068   -1.209701
  O      2.010336    1.056083   -1.911845
  C      2.861901    1.795460   -2.766193
  N     -0.798062   -1.540374    1.515293
  O     -1.485732   -2.436916    2.026686
  H     -0.090141   -0.153865   -1.402988
  H      1.450089   -2.341260    0.937142
  H      3.811038   -3.008857    0.808995
  H      5.378906   -1.713266   -0.618957
  H      4.560148    0.200319   -1.921207
  H      2.237620    2.560693   -3.222878
  H      3.287850    1.157771   -3.545842
  H      3.669706    2.270524   -2.202637
  O     -0.102228   -0.796062    2.256744
  H      1.924565    1.171196    3.696929
  H     -3.411947    3.004372   -2.239234
  C     -1.634375   -2.029956   -0.715382
  O     -2.461741   -2.878718   -0.442420
  O     -1.441860   -1.647700   -2.004364
  C     -2.291529   -2.264010   -2.962602
  H     -2.012722   -1.834353   -3.922525
  H     -2.143347   -3.344765   -2.978243
  H     -3.339554   -2.050522   -2.746391

 Multiplicity           Mult            ....    1
 Number of Electrons    NEL             ....  204
 Basis Dimension        Dim             ....  988

ORBITAL ENERGIES
----------------

  NO   OCC          E(Eh)            E(eV)
   0   2.0000     -19.263046      -524.1741
   1   2.0000     -19.246835      -523.7330
   2   2.0000     -19.243338      -523.6379
   3   2.0000     -19.204042      -522.5685
   4   2.0000     -19.193858      -522.2914
   5   2.0000     -19.192154      -522.2451
   6   2.0000     -19.176566      -521.8209
   7   2.0000     -14.581925      -396.7943
   8   2.0000     -14.511695      -394.8833
   9   2.0000     -10.367809      -282.1224
  10   2.0000     -10.342033      -281.4210
  11   2.0000     -10.312251      -280.6106
  12   2.0000     -10.310103      -280.5522
  13   2.0000     -10.303025      -280.3596
  14   2.0000     -10.287890      -279.9477
  15   2.0000     -10.277995      -279.6785
  16   2.0000     -10.270667      -279.4791
  17   2.0000     -10.267249      -279.3861
  18   2.0000     -10.266738      -279.3722
  19   2.0000     -10.265788      -279.3463
  20   2.0000     -10.262315      -279.2518
  21   2.0000     -10.262038      -279.2443
  22   2.0000     -10.251062      -278.9456
  23   2.0000     -10.238433      -278.6019
  24   2.0000     -10.226333      -278.2727
  25   2.0000     -10.224615      -278.2259
  26   2.0000     -10.223382      -278.1924
  27   2.0000     -10.218286      -278.0537
  28   2.0000      -1.218736       -33.1635
  29   2.0000      -1.157164       -31.4880
  30   2.0000      -1.129026       -30.7224
  31   2.0000      -1.108506       -30.1640
  32   2.0000      -1.083396       -29.4807
  33   2.0000      -1.060986       -28.8709
  34   2.0000      -1.036806       -28.2129
  35   2.0000      -1.028227       -27.9795
  36   2.0000      -0.905503       -24.6400
  37   2.0000      -0.888364       -24.1736
  38   2.0000      -0.863168       -23.4880
  39   2.0000      -0.844040       -22.9675
  40   2.0000      -0.822420       -22.3792
  41   2.0000      -0.790546       -21.5118
  42   2.0000      -0.774834       -21.0843
  43   2.0000      -0.755887       -20.5687
  44   2.0000      -0.751474       -20.4487
  45   2.0000      -0.725000       -19.7283
  46   2.0000      -0.714288       -19.4368
  47   2.0000      -0.706919       -19.2362
  48   2.0000      -0.679973       -18.5030
  49   2.0000      -0.641520       -17.4566
  50   2.0000      -0.621075       -16.9003
  51   2.0000      -0.617824       -16.8118
  52   2.0000      -0.608514       -16.5585
  53   2.0000      -0.579511       -15.7693
  54   2.0000      -0.570572       -15.5260
  55   2.0000      -0.562660       -15.3107
  56   2.0000      -0.557736       -15.1768
  57   2.0000      -0.547358       -14.8944
  58   2.0000      -0.542160       -14.7529
  59   2.0000      -0.539009       -14.6672
  60   2.0000      -0.528448       -14.3798
  61   2.0000      -0.519743       -14.1429
  62   2.0000      -0.509925       -13.8758
  63   2.0000      -0.507450       -13.8084
  64   2.0000      -0.502020       -13.6606
  65   2.0000      -0.496357       -13.5066
  66   2.0000      -0.491073       -13.3628
  67   2.0000      -0.490040       -13.3347
  68   2.0000      -0.487033       -13.2528
  69   2.0000      -0.485382       -13.2079
  70   2.0000      -0.482399       -13.1267
  71   2.0000      -0.475229       -12.9316
  72   2.0000      -0.457278       -12.4432
  73   2.0000      -0.447740       -12.1836
  74   2.0000      -0.446818       -12.1585
  75   2.0000      -0.437641       -11.9088
  76   2.0000      -0.430243       -11.7075
  77   2.0000      -0.425950       -11.5907
  78   2.0000      -0.417028       -11.3479
  79   2.0000      -0.414665       -11.2836
  80   2.0000      -0.411176       -11.1887
  81   2.0000      -0.404307       -11.0018
  82   2.0000      -0.398454       -10.8425
  83   2.0000      -0.391689       -10.6584
  84   2.0000      -0.381943       -10.3932
  85   2.0000      -0.375755       -10.2248
  86   2.0000      -0.370045       -10.0694
  87   2.0000      -0.359104        -9.7717
  88   2.0000      -0.348453        -9.4819
  89   2.0000      -0.341593        -9.2952
  90   2.0000      -0.340053        -9.2533
  91   2.0000      -0.331640        -9.0244
  92   2.0000      -0.323072        -8.7912
  93   2.0000      -0.317379        -8.6363
  94   2.0000      -0.314568        -8.5598
  95   2.0000      -0.306394        -8.3374
  96   2.0000      -0.298354        -8.1186
  97   2.0000      -0.287669        -7.8279
  98   2.0000      -0.266012        -7.2386
  99   2.0000      -0.265564        -7.2264
 100   2.0000      -0.238172        -6.4810
 101   2.0000      -0.230516        -6.2727
 102   0.0000      -0.084521        -2.2999
 103   0.0000      -0.046753        -1.2722
 104   0.0000      -0.036298        -0.9877
 105   0.0000      -0.011098        -0.3020
 106   0.0000       0.004463         0.1214

MULLIKEN ATOMIC CHARGES
-----------------------
   0 C :   -0.079751
   1 C :   -0.132432
   2 C :   -0.039759
   3 N :    0.208140
   4 C :    0.001219
   5 C :   -0.151709
   6 C :   -0.181524
   7 C :    0.322006
   8 O :   -0.383963
   9 O :   -0.202257
  10 C :   -0.271895
  11 H :    0.188790
  12 H :    0.208686
  13 H :    0.191670
  14 H :    0.190502
  15 H :    0.195665
  16 H :    0.154840
  17 H :    0.162441
  18 C :   -0.386842
  19 C :    0.377296
  20 C :   -0.049845
  21 C :   -0.193322
  22 C :   -0.213339
  23 C :   -0.148871
  24 C :   -0.311785
  25 C :    0.279808
  26 O :   -0.270684
  27 C :   -0.292092
  28 N :    0.476866
  29 O :   -0.462901
  30 H :    0.105698
  31 H :    0.153155
  32 H :    0.144367
  33 H :    0.149618
  34 H :    0.161693
  35 H :    0.163155
  36 H :    0.153945
  37 H :    0.152259
  38 O :   -0.480448
  39 H :    0.154373
  40 H :    0.191838
  41 C :    0.287054
  42 O :   -0.432539
  43 O :   -0.258506
  44 C :   -0.269540
  45 H :    0.152799
  46 H :    0.143307
  47 H :    0.142815
Sum of atomic charges:   -0.0000000

LOEWDIN ATOMIC CHARGES
----------------------
   0 C :   -0.054188
   1 C :   -0.099568
   2 C :   -0.075206
   3 N :    0.343207
   4 C :   -0.079401
   5 C :   -0.098370
   6 C :   -0.151118
   7 C :   -0.498909
   8 O :    0.089268
   9 O :    0.290722
  10 C :   -0.300896
  11 H :    0.172091
  12 H :    0.177377
  13 H :    0.172542
  14 H :    0.173968
  15 H :    0.191009
  16 H :    0.119689
  17 H :    0.123119
  18 C :   -0.232700
  19 C :   -0.160804
  20 C :   -0.100118
  21 C :   -0.113742
  22 C :   -0.169337
  23 C :   -0.151945
  24 C :   -0.145960
  25 C :   -0.231371
  26 O :    0.246346
  27 C :   -0.325921
  28 N :   -0.054488
  29 O :   -0.160150
  30 H :    0.194609
  31 H :    0.160086
  32 H :    0.151042
  33 H :    0.153207
  34 H :    0.159548
  35 H :    0.121848
  36 H :    0.118394
  37 H :    0.117537
  38 O :   -0.147095
  39 H :    0.119897
  40 H :    0.173898
  41 C :   -0.496678
  42 O :    0.033201
  43 O :    0.225809
  44 C :   -0.328138
  45 H :    0.118804
  46 H :    0.114478
  47 H :    0.114408

  Mayer bond orders larger than 0.100000
B(  0-C ,  1-C ) :   1.3939 B(  0-C ,  5-C ) :   1.4221 B(  0-C , 11-H ) :   0.9417
B(  1-C ,  2-C ) :   1.4577 B(  1-C , 40-H ) :   0.9450 B(  2-C ,  3-N ) :   1.2811
B(  2-C , 12-H ) :   0.9300 B(  3-N ,  4-C ) :   1.2749 B(  3-N ,  6-C ) :   0.8600
B(  4-C ,  5-C ) :   1.4448 B(  4-C , 13-H ) :   0.9123 B(  5-C , 14-H ) :   0.9447
B(  6-C ,  7-C ) :   1.0186 B(  6-C , 15-H ) :   0.9039 B(  6-C , 19-C ) :   0.8034
B(  7-C ,  8-O ) :   1.9779 B(  7-C ,  9-O ) :   1.2627 B(  9-O , 10-C ) :   0.8922
B( 10-C , 16-H ) :   0.9655 B( 10-C , 17-H ) :   0.9647 B( 10-C , 39-H ) :   0.9672
B( 18-C , 19-C ) :   0.8520 B( 18-C , 28-N ) :   1.3523 B( 18-C , 41-C ) :   1.1730
B( 19-C , 20-C ) :   0.9609 B( 19-C , 30-H ) :   0.9078 B( 20-C , 21-C ) :   1.3883
B( 20-C , 25-C ) :   1.2979 B( 21-C , 22-C ) :   1.4021 B( 21-C , 31-H ) :   0.9740
B( 22-C , 23-C ) :   1.4043 B( 22-C , 32-H ) :   0.9852 B( 23-C , 24-C ) :   1.3902
B( 23-C , 33-H ) :   0.9695 B( 24-C , 25-C ) :   1.3720 B( 24-C , 34-H ) :   0.9635
B( 25-C , 26-O ) :   1.0716 B( 26-O , 27-C ) :   0.9391 B( 27-C , 35-H ) :   0.9651
B( 27-C , 36-H ) :   0.9613 B( 27-C , 37-H ) :   0.9626 B( 28-N , 29-O ) :   1.4918
B( 28-N , 38-O ) :   1.3269 B( 41-C , 42-O ) :   1.9846 B( 41-C , 43-O ) :   1.1561
B( 43-O , 44-C ) :   0.9237 B( 44-C , 45-H ) :   0.9655 B( 44-C , 46-H ) :   0.9701
B( 44-C , 47-H ) :   0.9713

Dispersion correction           -0.061594054
FINAL SINGLE POINT ENERGY     -1371.085373117846

DIPOLE MOMENT
-------------
                                X             Y             Z
Electronic contribution:     -8.61999      -1.87545       7.69077
Nuclear contribution   :      8.62437       7.89616     -12.18888
                        -----------------------------------------
Total Dipole Moment    :      0.00437       6.02071      -4.49811
                        -----------------------------------------
Magnitude (a.u.)       :      7.51545
Magnitude (Debye)      :     19.10275

Dispersion correction in the Hessian             ... done   (      0.8 sec)

VIBRATIONAL FREQUENCIES
-----------------------

Scaling factor for frequencies =  1.000000000  (already applied!)

   0:         0.00 cm**-1
   1:         0.00 cm**-1
   2:         0.00 cm**-1
   3:         0.00 cm**-1
   4:         0.00 cm**-1
   5:         0.00 cm**-1
   6:        21.43 cm**-1
   7:        27.92 cm**-1
   8:        39.48 cm**-1
   9:        46.46 cm**-1
  10:        55.46 cm**-1
  11:        63.03 cm**-1
  12:        74.46 cm**-1
  13:        85.10 cm**-1
  14:        89.68 cm**-1
  15:        93.58 cm**-1
  16:       107.82 cm**-1
  17:       119.29 cm**-1
  18:       132.55 cm**-1
  19:       145.36 cm**-1
  20:       148.71 cm**-1
  21:       166.87 cm**-1
  22:       172.48 cm**-1
  23:       176.96 cm**-1
  24:       183.46 cm**-1
  25:       207.82 cm**-1
  26:       228.08 cm**-1
  27:       252.65 cm**-1
  28:       255.14 cm**-1
  29:       273.07 cm**-1
  30:       296.95 cm**-1
  31:       308.84 cm**-1
  32:       315.28 cm**-1
  33:       344.45 cm**-1
  34:       366.84 cm**-1
  35:       384.98 cm**-1
  36:       411.58 cm**-1
  37:       421.73 cm**-1
  38:       452.39 cm**-1
  39:       468.64 cm**-1
  40:       478.43 cm**-1
  41:       503.02 cm**-1
  42:       553.97 cm**-1
  43:       579.29 cm**-1
  44:       588.48 cm**-1
  45:       610.95 cm**-1
  46:       648.58 cm**-1
  47:       659.67 cm**-1
  48:       676.07 cm**-1
  49:       692.69 cm**-1
  50:       711.30 cm**-1
  51:       755.25 cm**-1
  52:       766.56 cm**-1
  53:       768.27 cm**-1
  54:       772.93 cm**-1
  55:       788.71 cm**-1
  56:       804.60 cm**-1
  57:       822.82 cm**-1
  58:       831.27 cm**-1
  59:       838.94 cm**-1
  60:       860.32 cm**-1
  61:       872.80 cm**-1
  62:       882.42 cm**-1
  63:       928.94 cm**-1
  64:       933.16 cm**-1
  65:       954.35 cm**-1
  66:       982.74 cm**-1
  67:       988.47 cm**-1
  68:      1004.71 cm**-1
  69:      1015.46 cm**-1
  70:      1033.59 cm**-1
  71:      1048.18 cm**-1
  72:      1061.03 cm**-1
  73:      1071.08 cm**-1
  74:      1076.65 cm**-1
  75:      1086.41 cm**-1
  76:      1087.17 cm**-1
  77:      1127.55 cm**-1
  78:      1135.19 cm**-1
  79:      1141.52 cm**-1
  80:      1169.68 cm**-1
  81:      1170.88 cm**-1
  82:      1171.11 cm**-1
  83:      1173.95 cm**-1
  84:      1175.78 cm**-1
  85:      1196.42 cm**-1
  86:      1199.60 cm**-1
  87:      1208.88 cm**-1
  88:      1212.78 cm**-1
  89:      1227.23 cm**-1
  90:      1231.72 cm**-1
  91:      1242.10 cm**-1
  92:      1261.92 cm**-1
  93:      1272.51 cm**-1
  94:      1289.26 cm**-1
  95:      1300.36 cm**-1
  96:      1319.78 cm**-1
  97:      1325.37 cm**-1
  98:      1356.64 cm**-1
  99:      1374.60 cm**-1
 100:      1379.06 cm**-1
 101:      1389.00 cm**-1
 102:      1423.45 cm**-1
 103:      1434.24 cm**-1
 104:      1451.64 cm**-1
 105:      1463.43 cm**-1
 106:      1464.82 cm**-1
 107:      1465.51 cm**-1
 108:      1465.69 cm**-1
 109:      1471.81 cm**-1
 110:      1473.37 cm**-1
 111:      1474.00 cm**-1
 112:      1479.02 cm**-1
 113:      1484.35 cm**-1
 114:      1497.31 cm**-1
 115:      1528.37 cm**-1
 116:      1533.92 cm**-1
 117:      1537.85 cm**-1
 118:      1644.36 cm**-1
 119:      1647.48 cm**-1
 120:      1663.64 cm**-1
 121:      1697.36 cm**-1
 122:      1732.49 cm**-1
 123:      1785.83 cm**-1
 124:      3037.99 cm**-1
 125:      3060.78 cm**-1
 126:      3072.82 cm**-1
 127:      3104.60 cm**-1
 128:      3109.54 cm**-1
 129:      3120.15 cm**-1
 130:      3137.42 cm**-1
 131:      3156.76 cm**-1
 132:      3165.35 cm**-1
 133:      3171.56 cm**-1
 134:      3189.88 cm**-1
 135:      3192.29 cm**-1
 136:      3207.80 cm**-1
 137:      3222.81 cm**-1
 138:      3229.64 cm**-1
 139:      3232.02 cm**-1
 140:      3239.16 cm**-1
 141:      3242.82 cm**-1
 142:      3250.30 cm**-1
 143:      3268.67 cm**-1

IR SPECTRUM
-----------

 Mode   freq       eps      Int      T**2         TX        TY        TZ
       cm**-1   L/(mol*cm) km/mol    a.u.
----------------------------------------------------------------------------
  6:     21.43   0.000159    0.81  0.002322  ( 0.037114  0.029986  0.006750)
  7:     27.92   0.000216    1.09  0.002417  ( 0.015330 -0.015778  0.043963)
  8:     39.48   0.000464    2.35  0.003671  (-0.026735  0.036621 -0.040191)
  9:     46.46   0.001660    8.39  0.011148  (-0.031121  0.095430  0.032757)
 10:     55.46   0.000170    0.86  0.000957  (-0.025988  0.013370 -0.010163)
 11:     63.03   0.000360    1.82  0.001784  (-0.005075 -0.041097  0.008315)
 12:     74.46   0.001925    9.73  0.008067  (-0.053648 -0.069538  0.018809)
 13:     85.10   0.001114    5.63  0.004086  ( 0.003669 -0.059532 -0.022990)
 14:     89.68   0.000104    0.52  0.000361  ( 0.018436  0.003725 -0.002758)
 15:     93.58   0.001076    5.44  0.003589  ( 0.040051 -0.023057  0.038124)
 16:    107.82   0.000604    3.05  0.001748  (-0.021041  0.030053  0.020057)
 17:    119.29   0.001206    6.10  0.003156  ( 0.023113 -0.005023  0.050955)
 18:    132.55   0.000334    1.69  0.000787  ( 0.007431 -0.014288 -0.022978)
 19:    145.36   0.000210    1.06  0.000451  (-0.013440  0.014545  0.007650)
 20:    148.71   0.001631    8.24  0.003422  (-0.043612  0.038545  0.005824)
 21:    166.87   0.000182    0.92  0.000341  ( 0.012976  0.007423 -0.010834)
 22:    172.48   0.000142    0.72  0.000256  ( 0.002147 -0.015506  0.003318)
 23:    176.96   0.002232   11.28  0.003936  ( 0.051019 -0.033978 -0.013354)
 24:    183.46   0.001857    9.38  0.003158  (-0.034869 -0.042486 -0.011726)
 25:    207.82   0.000828    4.18  0.001243  ( 0.023518 -0.002367 -0.026160)
 26:    228.08   0.001527    7.72  0.002089  (-0.012829 -0.043866  0.000671)
 27:    252.65   0.001152    5.82  0.001423  ( 0.024976 -0.022316  0.017343)
 28:    255.14   0.000629    3.18  0.000769  (-0.006603  0.025669  0.008155)
 29:    273.07   0.003720   18.80  0.004251  (-0.062036  0.020019  0.001240)
 30:    296.95   0.000663    3.35  0.000697  ( 0.023398  0.011499 -0.004160)
 31:    308.84   0.002213   11.18  0.002236  (-0.006331  0.025235 -0.039481)
 32:    315.28   0.000641    3.24  0.000634  (-0.010506  0.009299 -0.020907)
 33:    344.45   0.001177    5.95  0.001066  (-0.012152 -0.008264  0.029154)
 34:    366.84   0.004141   20.93  0.003523  (-0.050630 -0.001298 -0.030947)
 35:    384.98   0.001734    8.76  0.001405  (-0.019267 -0.010069 -0.030540)
 36:    411.58   0.002475   12.51  0.001876  (-0.013986 -0.008156 -0.040178)
 37:    421.73   0.000085    0.43  0.000063  ( 0.001145 -0.007550  0.002192)
 38:    452.39   0.000188    0.95  0.000130  (-0.000629  0.002276  0.011148)
 39:    468.64   0.000176    0.89  0.000117  (-0.000832 -0.005093 -0.009526)
 40:    478.43   0.000168    0.85  0.000110  (-0.002792 -0.008750 -0.005034)
 41:    503.02   0.001120    5.66  0.000695  ( 0.020698 -0.015346 -0.005583)
 42:    553.97   0.004298   21.72  0.002421  (-0.017325 -0.042307 -0.018197)
 43:    579.29   0.005743   29.02  0.003094  ( 0.044820  0.032401  0.005918)
 44:    588.48   0.007482   37.81  0.003968  (-0.001089  0.062247 -0.009588)
 45:    610.95   0.002915   14.73  0.001489  ( 0.036192  0.011604 -0.006653)
 46:    648.58   0.001716    8.67  0.000825  ( 0.010235 -0.014608 -0.022524)
 47:    659.67   0.000975    4.93  0.000461  ( 0.001845 -0.021390 -0.000448)
 48:    676.07   0.003369   17.03  0.001555  (-0.025013  0.009597  0.028937)
 49:    692.69   0.001580    7.98  0.000712  (-0.011641 -0.000260  0.024003)
 50:    711.30   0.030136  152.30  0.013221  (-0.008189 -0.104548 -0.047161)
 51:    755.25   0.002690   13.59  0.001111  ( 0.003100  0.022144  0.024727)
 52:    766.56   0.013589   68.68  0.005532  ( 0.019348  0.041222  0.058810)
 53:    768.27   0.003495   17.66  0.001420  (-0.007060 -0.024439 -0.027797)
 54:    772.93   0.006602   33.37  0.002666  ( 0.011019 -0.043396 -0.025710)
 55:    788.71   0.003714   18.77  0.001469  (-0.004281  0.000762 -0.038086)
 56:    804.60   0.007526   38.03  0.002919  (-0.022798  0.048975  0.000669)
 57:    822.82   0.004503   22.75  0.001708  (-0.011992 -0.038841 -0.007434)
 58:    831.27   0.009496   47.99  0.003565  ( 0.054735  0.009162 -0.022023)
 59:    838.94   0.009775   49.40  0.003636  ( 0.025521  0.015504  0.052386)
 60:    860.32   0.005940   30.02  0.002155  (-0.025743  0.038591 -0.001637)
 61:    872.80   0.000456    2.30  0.000163  (-0.004802  0.007496 -0.009153)
 62:    882.42   0.000247    1.25  0.000087  ( 0.003067  0.003693  0.008024)
 63:    928.94   0.001972    9.97  0.000662  (-0.016699 -0.006595  0.018442)
 64:    933.16   0.008685   43.89  0.002904  (-0.041566 -0.034200 -0.002667)
 65:    954.35   0.000370    1.87  0.000121  ( 0.003714  0.009989 -0.002724)
 66:    982.74   0.000180    0.91  0.000057  ( 0.000970 -0.000404  0.007482)
 67:    988.47   0.000467    2.36  0.000148  ( 0.008759 -0.003885  0.007464)
 68:   1004.71   0.021531  108.81  0.006688  ( 0.011005  0.008521  0.080585)
 69:   1015.46   0.001237    6.25  0.000380  (-0.007328  0.006063 -0.017019)
 70:   1033.59   0.003973   20.08  0.001199  ( 0.024253  0.024602  0.002433)
 71:   1048.18   0.000099    0.50  0.000030  (-0.003805  0.003433 -0.001826)
 72:   1061.03   0.000700    3.54  0.000206  ( 0.001452  0.013589  0.004378)
 73:   1071.08   0.011419   57.70  0.003327  ( 0.051367  0.020689  0.016132)
 74:   1076.65   0.020332  102.75  0.005893  (-0.010815 -0.020939  0.073061)
 75:   1086.41   0.001162    5.87  0.000334  ( 0.012314 -0.005074 -0.012506)
 76:   1087.17   0.005145   26.00  0.001477  (-0.019700  0.024815 -0.021746)
 77:   1127.55   0.079310  400.80  0.021950  (-0.030165 -0.024551 -0.142959)
 78:   1135.19   0.076320  385.69  0.020980  (-0.068441 -0.035720 -0.122557)
 79:   1141.52   0.018762   94.82  0.005129  (-0.005806 -0.021909  0.067937)
 80:   1169.68   0.000273    1.38  0.000073  (-0.003446 -0.007602  0.001763)
 81:   1170.88   0.000233    1.18  0.000062  ( 0.006493 -0.004209  0.001523)
 82:   1171.11   0.000050    0.25  0.000013  ( 0.002328  0.001169  0.002541)
 83:   1173.95   0.001175    5.94  0.000312  ( 0.014523  0.006974 -0.007272)
 84:   1175.78   0.001417    7.16  0.000376  (-0.002110  0.013512 -0.013749)
 85:   1196.42   0.016898   85.39  0.004407  ( 0.021026  0.010313  0.062121)
 86:   1199.60   0.048865  246.94  0.012712  (-0.012858 -0.009532 -0.111604)
 87:   1208.88   0.002538   12.83  0.000655  (-0.020750  0.000985 -0.014955)
 88:   1212.78   0.001583    8.00  0.000407  ( 0.000890 -0.018982 -0.006794)
 89:   1227.23   0.007005   35.40  0.001781  (-0.036167 -0.007851 -0.020289)
 90:   1231.72   0.001260    6.37  0.000319  ( 0.008586 -0.014952  0.004688)
 91:   1242.10   0.021007  106.16  0.005278  ( 0.068566 -0.020658  0.012239)
 92:   1261.92   0.048415  244.67  0.011973  (-0.021547  0.002186  0.107255)
 93:   1272.51   0.127797  645.83  0.031340  ( 0.122588  0.006766  0.127541)
 94:   1289.26   0.044221  223.47  0.010703  ( 0.017389  0.095274 -0.036387)
 95:   1300.36   0.016317   82.46  0.003916  (-0.025157  0.057282 -0.001289)
 96:   1319.78   0.010071   50.90  0.002381  ( 0.040069 -0.001213  0.027828)
 97:   1325.37   0.040516  204.75  0.009540  ( 0.035552  0.029463 -0.086068)
 98:   1356.64   0.008799   44.47  0.002024  (-0.034867 -0.011547 -0.025981)
 99:   1374.60   0.071933  363.52  0.016330  (-0.065191 -0.045354 -0.100117)
100:   1379.06   0.049705  251.19  0.011247  (-0.058412 -0.047300 -0.074822)
101:   1389.00   0.016746   84.63  0.003762  ( 0.035780  0.043803  0.023734)
102:   1423.45   0.116320  587.83  0.025501  (-0.034425  0.030458 -0.152932)
103:   1434.24   0.027125  137.08  0.005902  ( 0.011540  0.002163 -0.075921)
104:   1451.64   0.057621  291.19  0.012387  (-0.041356 -0.079010  0.066588)
105:   1463.43   0.002914   14.72  0.000621  (-0.018029  0.017057  0.002307)
106:   1464.82   0.004092   20.68  0.000872  ( 0.006861 -0.026669  0.010650)
107:   1465.51   0.001357    6.86  0.000289  ( 0.011211  0.009905  0.008067)
108:   1465.69   0.023728  119.91  0.005052  ( 0.035096  0.061805 -0.000568)
109:   1471.81   0.013353   67.48  0.002831  (-0.034948  0.005332 -0.039768)
110:   1473.37   0.002872   14.51  0.000608  (-0.005145 -0.015456 -0.018516)
111:   1474.00   0.002734   13.82  0.000579  (-0.017880  0.006479  0.014737)
112:   1479.02   0.001826    9.23  0.000385  (-0.012627 -0.013893  0.005729)
113:   1484.35   0.005293   26.75  0.001113  ( 0.013358 -0.024879  0.017758)
114:   1497.31   0.011938   60.33  0.002488  ( 0.002814 -0.041854  0.026989)
115:   1528.37   0.015719   79.44  0.003210  ( 0.034372  0.023495 -0.038421)
116:   1533.92   0.021990  111.13  0.004474  ( 0.013147 -0.055845  0.034382)
117:   1537.85   0.016833   85.07  0.003416  ( 0.019828 -0.041029  0.036596)
118:   1644.36   0.003042   15.37  0.000577  (-0.002274 -0.016245  0.017554)
119:   1647.48   0.006218   31.42  0.001178  ( 0.018723  0.021521 -0.019082)
120:   1663.64   0.012949   65.44  0.002429  ( 0.007259 -0.040179  0.027604)
121:   1697.36   0.017890   90.41  0.003289  ( 0.054091 -0.014955  0.011820)
122:   1732.49   0.157859  797.76  0.028434  (-0.106633 -0.130272  0.009644)
123:   1785.83   0.110510  558.47  0.019311  (-0.100457  0.066928  0.068848)
124:   3037.99   0.013149   66.45  0.001351  (-0.020528 -0.019840  0.023144)
125:   3060.78   0.010468   52.90  0.001067  ( 0.017874  0.012354  0.024396)
126:   3072.82   0.006428   32.48  0.000653  ( 0.013206  0.007356  0.020598)
127:   3104.60   0.001467    7.41  0.000147  ( 0.009082  0.007071  0.003868)
128:   3109.54   0.007549   38.15  0.000758  (-0.005812 -0.017178 -0.020706)
129:   3120.15   0.005649   28.55  0.000565  ( 0.010975 -0.004852 -0.020518)
130:   3137.42   0.006358   32.13  0.000632  ( 0.016857 -0.018273 -0.003787)
131:   3156.76   0.003802   19.21  0.000376  ( 0.004301  0.017822 -0.006303)
132:   3165.35   0.003829   19.35  0.000378  (-0.011988  0.013115 -0.007863)
133:   3171.56   0.003870   19.56  0.000381  ( 0.007279  0.009501 -0.015414)
134:   3189.88   0.002124   10.73  0.000208  (-0.013461  0.004032  0.003215)
135:   3192.29   0.000515    2.60  0.000050  (-0.006564 -0.001057  0.002479)
136:   3207.80   0.003318   16.77  0.000323  ( 0.013874 -0.010384  0.004736)
137:   3222.81   0.000125    0.63  0.000012  (-0.003402  0.000743 -0.000098)
138:   3229.64   0.002078   10.50  0.000201  (-0.004170 -0.010568  0.008468)
139:   3232.02   0.000550    2.78  0.000053  ( 0.003964 -0.005718  0.002158)
140:   3239.16   0.000469    2.37  0.000045  (-0.006294 -0.000402  0.002323)
141:   3242.82   0.001040    5.26  0.000100  ( 0.009653 -0.000158 -0.002628)
142:   3250.30   0.001647    8.32  0.000158  ( 0.002487  0.005919 -0.010813)
143:   3268.67   0.004224   21.35  0.000403  (-0.010596  0.012333 -0.011785)

--------------------------
THERMOCHEMISTRY AT 298.15K
--------------------------

Temperature         ... 298.15 K
Pressure            ... 1.00 atm
Total Mass          ... 388.38 AMU

Throughout the following assumptions are being made:
  (1) The electronic state is orbitally nondegenerate
  (2) There are no thermally accessible electronically excited states
  (3) Hindered rotations indicated by low frequency modes are not
      treated as such but are treated as vibrations and this may
      cause some error
  (4) All equations used are the standard statistical mechanics
      equations for an ideal gas
  (5) All vibrations are strictly harmonic

freq.      21.43  E(vib)   ...       0.56
freq.      27.92  E(vib)   ...       0.55
freq.      39.48  E(vib)   ...       0.54
freq.      46.46  E(vib)   ...       0.53
freq.      55.46  E(vib)   ...       0.52
freq.      63.03  E(vib)   ...       0.51
freq.      74.46  E(vib)   ...       0.49
freq.      85.10  E(vib)   ...       0.48
freq.      89.68  E(vib)   ...       0.47
freq.      93.58  E(vib)   ...       0.47
freq.     107.82  E(vib)   ...       0.45
freq.     119.29  E(vib)   ...       0.44
freq.     132.55  E(vib)   ...       0.42
freq.     145.36  E(vib)   ...       0.41
freq.     148.71  E(vib)   ...       0.41
freq.     166.87  E(vib)   ...       0.39
freq.     172.48  E(vib)   ...       0.38
freq.     176.96  E(vib)   ...       0.38
freq.     183.46  E(vib)   ...       0.37
freq.     207.82  E(vib)   ...       0.34
freq.     228.08  E(vib)   ...       0.33
freq.     252.65  E(vib)   ...       0.30
freq.     255.14  E(vib)   ...       0.30
freq.     273.07  E(vib)   ...       0.29
freq.     296.95  E(vib)   ...       0.27
freq.     308.84  E(vib)   ...       0.26
freq.     315.28  E(vib)   ...       0.25
freq.     344.45  E(vib)   ...       0.23
freq.     366.84  E(vib)   ...       0.22
freq.     384.98  E(vib)   ...       0.20
freq.     411.58  E(vib)   ...       0.19
freq.     421.73  E(vib)   ...       0.18
freq.     452.39  E(vib)   ...       0.16
freq.     468.64  E(vib)   ...       0.16
freq.     478.43  E(vib)   ...       0.15
freq.     503.02  E(vib)   ...       0.14
freq.     553.97  E(vib)   ...       0.12
freq.     579.29  E(vib)   ...       0.11
freq.     588.48  E(vib)   ...       0.10
freq.     610.95  E(vib)   ...       0.10
freq.     648.58  E(vib)   ...       0.08
freq.     659.67  E(vib)   ...       0.08
freq.     676.07  E(vib)   ...       0.08
freq.     692.69  E(vib)   ...       0.07
freq.     711.30  E(vib)   ...       0.07
freq.     755.25  E(vib)   ...       0.06
freq.     766.56  E(vib)   ...       0.06
freq.     768.27  E(vib)   ...       0.06
freq.     772.93  E(vib)   ...       0.05
freq.     788.71  E(vib)   ...       0.05
freq.     804.60  E(vib)   ...       0.05
freq.     822.82  E(vib)   ...       0.05
freq.     831.27  E(vib)   ...       0.04
freq.     838.94  E(vib)   ...       0.04
freq.     860.32  E(vib)   ...       0.04
freq.     872.80  E(vib)   ...       0.04
freq.     882.42  E(vib)   ...       0.04
freq.     928.94  E(vib)   ...       0.03
freq.     933.16  E(vib)   ...       0.03
freq.     954.35  E(vib)   ...       0.03
freq.     982.74  E(vib)   ...       0.02
freq.     988.47  E(vib)   ...       0.02
freq.    1004.71  E(vib)   ...       0.02
freq.    1015.46  E(vib)   ...       0.02
freq.    1033.59  E(vib)   ...       0.02
freq.    1048.18  E(vib)   ...       0.02
freq.    1061.03  E(vib)   ...       0.02
freq.    1071.08  E(vib)   ...       0.02
freq.    1076.65  E(vib)   ...       0.02
freq.    1086.41  E(vib)   ...       0.02
freq.    1087.17  E(vib)   ...       0.02
freq.    1127.55  E(vib)   ...       0.01
freq.    1135.19  E(vib)   ...       0.01
freq.    1141.52  E(vib)   ...       0.01
freq.    1169.68  E(vib)   ...       0.01
freq.    1170.88  E(vib)   ...       0.01
freq.    1171.11  E(vib)   ...       0.01
freq.    1173.95  E(vib)   ...       0.01
freq.    1175.78  E(vib)   ...       0.01
freq.    1196.42  E(vib)   ...       0.01
freq.    1199.60  E(vib)   ...       0.01
freq.    1208.88  E(vib)   ...       0.01
freq.    1212.78  E(vib)   ...       0.01
freq.    1227.23  E(vib)   ...       0.01
freq.    1231.72  E(vib)   ...       0.01
freq.    1242.10  E(vib)   ...       0.01
freq.    1261.92  E(vib)   ...       0.01
freq.    1272.51  E(vib)   ...       0.01
freq.    1289.26  E(vib)   ...       0.01
freq.    1300.36  E(vib)   ...       0.01
freq.    1319.78  E(vib)   ...       0.01
freq.    1325.37  E(vib)   ...       0.01
freq.    1356.64  E(vib)   ...       0.01
freq.    1374.60  E(vib)   ...       0.01
freq.    1379.06  E(vib)   ...       0.01
freq.    1389.00  E(vib)   ...       0.00
freq.    1423.45  E(vib)   ...       0.00
freq.    1434.24  E(vib)   ...       0.00
freq.    1451.64  E(vib)   ...       0.00
freq.    1463.43  E(vib)   ...       0.00
freq.    1464.82  E(vib)   ...       0.00
freq.    1465.51  E(vib)   ...       0.00
freq.    1465.69  E(vib)   ...       0.00
freq.    1471.81  E(vib)   ...       0.00
freq.    1473.37  E(vib)   ...       0.00
freq.    1474.00  E(vib)   ...       0.00
freq.    1479.02  E(vib)   ...       0.00
freq.    1484.35  E(vib)   ...       0.00
freq.    1497.31  E(vib)   ...       0.00
freq.    1528.37  E(vib)   ...       0.00
freq.    1533.92  E(vib)   ...       0.00
freq.    1537.85  E(vib)   ...       0.00
freq.    1644.36  E(vib)   ...       0.00
freq.    1647.48  E(vib)   ...       0.00
freq.    1663.64  E(vib)   ...       0.00
freq.    1697.36  E(vib)   ...       0.00
freq.    1732.49  E(vib)   ...       0.00
freq.    1785.83  E(vib)   ...       0.00
freq.    3037.99  E(vib)   ...       0.00
freq.    3060.78  E(vib)   ...       0.00
freq.    3072.82  E(vib)   ...       0.00
freq.    3104.60  E(vib)   ...       0.00
freq.    3109.54  E(vib)   ...       0.00
freq.    3120.15  E(vib)   ...       0.00
freq.    3137.42  E(vib)   ...       0.00
freq.    3156.76  E(vib)   ...       0.00
freq.    3165.35  E(vib)   ...       0.00
freq.    3171.56  E(vib)   ...       0.00
freq.    3189.88  E(vib)   ...       0.00
freq.    3192.29  E(vib)   ...       0.00
freq.    3207.80  E(vib)   ...       0.00
freq.    3222.81  E(vib)   ...       0.00
freq.    3229.64  E(vib)   ...       0.00
freq.    3232.02  E(vib)   ...       0.00
freq.    3239.16  E(vib)   ...       0.00
freq.    3242.82  E(vib)   ...       0.00
freq.    3250.30  E(vib)   ...       0.00
freq.    3268.67  E(vib)   ...       0.00

------------
INNER ENERGY
------------

The inner energy is: U= E(el) + E(ZPE) + E(vib) + E(rot) + E(trans)

Rotational constants in cm-1:     0.007910     0.005557     0.005114

                             ****ORCA TERMINATED NORMALLY****
TOTAL RUN TIME: 0 days 2 hours 6 minutes 18 seconds 479 msec
