                         Program Version 5.0.4 -  RELEASE  -
|  1> %pal nprocs 24 end
|  2> ! PBE0 D3BJ def2-TZVP TightSCF OPT FREQ TightOpt
|  3> ! CPCM(dmso)
|  4> %scf
|  5> MaxIter 800
|  6> end
|  7>
|  8> %geom
|  9> MaxIter 800
| 10> MaxStep 0.15
| 11> end
| 12>
| 13> *xyz 0 1
| 14> C      -2.40202600      3.54277400      2.08271800
| 15> C      -2.91847000      2.30472700      1.71583300
| 16> C      -2.16955800      1.46465900      0.90690800
| 17> N      -0.95180900      1.85881800      0.47692900
| 18> C      -0.43055100      3.05467200      0.81841900
| 19> C      -1.13869500      3.92267900      1.62375100
| 20> C      -0.15100400      0.91913600     -0.30790500
| 21> C      -0.92816100      0.50285000     -1.55054200
| 22> O      -1.95912800      1.01724800     -1.90566200
| 23> O      -0.23217600     -0.35995600     -2.26445700
| 24> C      -0.84091300     -0.83901000     -3.45680500
| 25> H      -2.97941700      4.21486800      2.72147600
| 26> H      -2.51896300      0.49619500      0.52469900
| 27> H       0.56414000      3.27981800      0.43021600
| 28> H      -0.69921500      4.88584500      1.88530200
| 29> H       0.71596000      1.48018600     -0.68592400
| 30> H      -0.12143200     -1.53101500     -3.90794800
| 31> H      -1.05609100     -0.00955800     -4.14501900
| 32> H      -3.90340700      1.97593100      2.04948400
| 33> C      -0.53072900     -0.90460000      1.47926400
| 34> C       0.43935100     -0.17163800      0.62601400
| 35> C       1.44117500     -1.06475100     -0.08824600
| 36> C       1.21376200     -2.42229600     -0.29655900
| 37> C       2.16054900     -3.22449800     -0.93563800
| 38> C       3.35549000     -2.65853600     -1.37156000
| 39> C       3.61212600     -1.30155300     -1.16777300
| 40> C       2.65856200     -0.50602800     -0.52579400
| 41> O       2.81857100      0.81439300     -0.28398100
| 42> C       4.02102600      1.44490300     -0.66123300
| 43> N      -1.60000600     -1.56604500      1.06392000
| 44> O      -2.20304200     -2.37808200      1.80301900
| 45> H       1.03467600      0.41834500      1.34494500
| 46> H       0.27729900     -2.86370600      0.05026900
| 47> H       1.96223500     -4.28757800     -1.08881800
| 48> H       4.10687600     -3.27386700     -1.87292300
| 49> H       4.55487700     -0.87196500     -1.50793500
| 50> H       3.92999000      2.49447600     -0.35615400
| 51> H       4.17681900      1.39589300     -1.75149800
| 52> H       4.88800200      0.99248400     -0.15240800
| 53> O      -2.04742900     -1.30006500     -0.10971400
| 54> H      -1.77507900     -1.36656900     -3.21722600
| 55> F      -0.05530700     -1.25987100      2.68920600
| 56> *
| 57>
| 58>                          ****END OF INPUT****
 Total Charge           Charge          ....    0
 Multiplicity           Mult            ....    1
 Number of Electrons    NEL             ....  182
Dispersion correction           -0.052848958
FINAL SINGLE POINT ENERGY     -1242.528019397361
Dispersion correction            ... done
Dispersion correction           -0.052491024
FINAL SINGLE POINT ENERGY     -1242.529272412742
Dispersion correction            ... done
Dispersion correction           -0.052828672
FINAL SINGLE POINT ENERGY     -1242.528819516401
Dispersion correction            ... done
FINAL SINGLE POINT ENERGY     -1242.530306192701
FINAL SINGLE POINT ENERGY     -1242.530203166125
FINAL SINGLE POINT ENERGY     -1242.530519284877
FINAL SINGLE POINT ENERGY     -1242.530528114448
FINAL SINGLE POINT ENERGY     -1242.530553714586
FINAL SINGLE POINT ENERGY     -1242.530550814882
Dispersion correction           -0.052797220
FINAL SINGLE POINT ENERGY     -1242.530559526107
Dispersion correction            ... done
Dispersion correction           -0.052790671
FINAL SINGLE POINT ENERGY     -1242.530559328761
Dispersion correction            ... done
                    ***********************HURRAY********************

CARTESIAN COORDINATES (ANGSTROEM)
---------------------------------
  C     -2.389656    3.521270    2.077736
  C     -2.912810    2.291292    1.717037
  C     -2.176010    1.452028    0.911060
  N     -0.960791    1.831686    0.479734
  C     -0.435065    3.021903    0.815081
  C     -1.132907    3.890663    1.616386
  C     -0.164675    0.892528   -0.309806
  C     -0.942249    0.479558   -1.553102
  O     -1.989726    0.971131   -1.888292
  O     -0.227891   -0.349438   -2.285863
  C     -0.824481   -0.785109   -3.510421
  H     -2.956000    4.192157    2.711970
  H     -2.530851    0.493254    0.548986
  H      0.550198    3.239758    0.425205
  H     -0.690374    4.843703    1.871532
  H      0.690449    1.455211   -0.688945
  H     -0.110807   -1.475136   -3.952535
  H     -0.994991    0.064167   -4.171964
  H     -3.890254    1.971249    2.051139
  C     -0.519267   -0.926214    1.484409
  C      0.440140   -0.190237    0.627238
  C      1.449936   -1.071157   -0.083563
  C      1.231693   -2.421972   -0.293543
  C      2.175270   -3.214701   -0.933572
  C      3.360688   -2.644842   -1.367205
  C      3.610169   -1.294419   -1.159147
  C      2.659869   -0.509661   -0.515644
  O      2.821281    0.810936   -0.266660
  C      4.024407    1.430929   -0.681696
  N     -1.603608   -1.561604    1.122888
  O     -2.280188   -2.260252    1.936861
  H      1.019422    0.409377    1.340053
  H      0.299829   -2.860613    0.042451
  H      1.982120   -4.269230   -1.089655
  H      4.107644   -3.249378   -1.869169
  H      4.543349   -0.862886   -1.495398
  H      3.942763    2.473940   -0.383158
  H      4.145046    1.368799   -1.766747
  H      4.890268    0.976591   -0.192417
  O     -2.008963   -1.415376   -0.091193
  H     -1.768275   -1.291001   -3.306855
  F     -0.115823   -1.109190    2.757434

 Multiplicity           Mult            ....    1
 Number of Electrons    NEL             ....  182
 Basis Dimension        Dim             ....  877

ORBITAL ENERGIES
----------------

  NO   OCC          E(Eh)            E(eV)
   0   2.0000     -24.784286      -674.4147
   1   2.0000     -19.264539      -524.2148
   2   2.0000     -19.248781      -523.7860
   3   2.0000     -19.204729      -522.5872
   4   2.0000     -19.173865      -521.7474
   5   2.0000     -19.169882      -521.6390
   6   2.0000     -14.553108      -396.0102
   7   2.0000     -14.511161      -394.8688
   8   2.0000     -10.369341      -282.1641
   9   2.0000     -10.314439      -280.6702
  10   2.0000     -10.312210      -280.6095
  11   2.0000     -10.308954      -280.5209
  12   2.0000     -10.306678      -280.4590
  13   2.0000     -10.290801      -280.0269
  14   2.0000     -10.277484      -279.6646
  15   2.0000     -10.274443      -279.5818
  16   2.0000     -10.271258      -279.4951
  17   2.0000     -10.268013      -279.4068
  18   2.0000     -10.266160      -279.3564
  19   2.0000     -10.264719      -279.3172
  20   2.0000     -10.241820      -278.6941
  21   2.0000     -10.228824      -278.3405
  22   2.0000     -10.227788      -278.3123
  23   2.0000     -10.225873      -278.2601
  24   2.0000     -10.220640      -278.1178
  25   2.0000      -1.265777       -34.4436
  26   2.0000      -1.179398       -32.0930
  27   2.0000      -1.158576       -31.5265
  28   2.0000      -1.110486       -30.2179
  29   2.0000      -1.083771       -29.4909
  30   2.0000      -1.061801       -28.8931
  31   2.0000      -1.000844       -27.2343
  32   2.0000      -0.907079       -24.6829
  33   2.0000      -0.889924       -24.2161
  34   2.0000      -0.856781       -23.3142
  35   2.0000      -0.843050       -22.9406
  36   2.0000      -0.820799       -22.3351
  37   2.0000      -0.793323       -21.5874
  38   2.0000      -0.777960       -21.1694
  39   2.0000      -0.757566       -20.6144
  40   2.0000      -0.732115       -19.9219
  41   2.0000      -0.714189       -19.4341
  42   2.0000      -0.712861       -19.3979
  43   2.0000      -0.681489       -18.5442
  44   2.0000      -0.637267       -17.3409
  45   2.0000      -0.619648       -16.8615
  46   2.0000      -0.612050       -16.6547
  47   2.0000      -0.602078       -16.3834
  48   2.0000      -0.577183       -15.7060
  49   2.0000      -0.567113       -15.4319
  50   2.0000      -0.559425       -15.2227
  51   2.0000      -0.551576       -15.0091
  52   2.0000      -0.546342       -14.8667
  53   2.0000      -0.539092       -14.6694
  54   2.0000      -0.527481       -14.3535
  55   2.0000      -0.515658       -14.0318
  56   2.0000      -0.512629       -13.9493
  57   2.0000      -0.507276       -13.8037
  58   2.0000      -0.503869       -13.7110
  59   2.0000      -0.496259       -13.5039
  60   2.0000      -0.491158       -13.3651
  61   2.0000      -0.485362       -13.2074
  62   2.0000      -0.483250       -13.1499
  63   2.0000      -0.474104       -12.9010
  64   2.0000      -0.462803       -12.5935
  65   2.0000      -0.458561       -12.4781
  66   2.0000      -0.453189       -12.3319
  67   2.0000      -0.449204       -12.2235
  68   2.0000      -0.439849       -11.9689
  69   2.0000      -0.431483       -11.7412
  70   2.0000      -0.426127       -11.5955
  71   2.0000      -0.418883       -11.3984
  72   2.0000      -0.413324       -11.2471
  73   2.0000      -0.409195       -11.1348
  74   2.0000      -0.398950       -10.8560
  75   2.0000      -0.391111       -10.6427
  76   2.0000      -0.384179       -10.4540
  77   2.0000      -0.376154       -10.2357
  78   2.0000      -0.368683       -10.0324
  79   2.0000      -0.348997        -9.4967
  80   2.0000      -0.343528        -9.3479
  81   2.0000      -0.341795        -9.3007
  82   2.0000      -0.332328        -9.0431
  83   2.0000      -0.322322        -8.7708
  84   2.0000      -0.308478        -8.3941
  85   2.0000      -0.295977        -8.0540
  86   2.0000      -0.283040        -7.7019
  87   2.0000      -0.269258        -7.3269
  88   2.0000      -0.261526        -7.1165
  89   2.0000      -0.241209        -6.5636
  90   2.0000      -0.209382        -5.6976
  91   0.0000      -0.083958        -2.2846
  92   0.0000      -0.046182        -1.2567
  93   0.0000      -0.015738        -0.4282
  94   0.0000      -0.000558        -0.0152
  95   0.0000       0.007401         0.2014

MULLIKEN ATOMIC CHARGES
-----------------------
   0 C :   -0.085323
   1 C :   -0.161765
   2 C :   -0.008459
   3 N :    0.201549
   4 C :   -0.037905
   5 C :   -0.130155
   6 C :   -0.175280
   7 C :    0.320217
   8 O :   -0.381636
   9 O :   -0.205503
  10 C :   -0.270938
  11 H :    0.188008
  12 H :    0.180872
  13 H :    0.207441
  14 H :    0.192537
  15 H :    0.190944
  16 H :    0.162756
  17 H :    0.156163
  18 H :    0.189869
  19 C :    0.022420
  20 C :    0.182421
  21 C :   -0.037617
  22 C :   -0.206763
  23 C :   -0.212834
  24 C :   -0.142475
  25 C :   -0.308561
  26 C :    0.287606
  27 O :   -0.268460
  28 C :   -0.288355
  29 N :    0.454314
  30 O :   -0.598008
  31 H :    0.108185
  32 H :    0.153504
  33 H :    0.145937
  34 H :    0.151599
  35 H :    0.164557
  36 H :    0.163865
  37 H :    0.152692
  38 H :    0.154657
  39 O :   -0.566287
  40 H :    0.154863
  41 F :   -0.200653
Sum of atomic charges:   -0.0000000

LOEWDIN ATOMIC CHARGES
----------------------
   0 C :   -0.055173
   1 C :   -0.100825
   2 C :   -0.082408
   3 N :    0.339811
   4 C :   -0.075400
   5 C :   -0.100938
   6 C :   -0.146135
   7 C :   -0.495843
   8 O :    0.092859
   9 O :    0.292449
  10 C :   -0.299510
  11 H :    0.171848
  12 H :    0.170712
  13 H :    0.176703
  14 H :    0.173627
  15 H :    0.192960
  16 H :    0.123283
  17 H :    0.120165
  18 H :    0.173271
  19 C :   -0.388289
  20 C :   -0.169814
  21 C :   -0.102670
  22 C :   -0.109243
  23 C :   -0.165702
  24 C :   -0.147156
  25 C :   -0.141832
  26 C :   -0.231977
  27 O :    0.246803
  28 C :   -0.323781
  29 N :   -0.088324
  30 O :   -0.277074
  31 H :    0.200565
  32 H :    0.161722
  33 H :    0.151897
  34 H :    0.154162
  35 H :    0.160335
  36 H :    0.122114
  37 H :    0.117975
  38 H :    0.118690
  39 O :   -0.245368
  40 H :    0.120187
  41 F :    0.165324

  Mayer bond orders larger than 0.100000
B(  0-C ,  1-C ) :   1.4270 B(  0-C ,  5-C ) :   1.3940 B(  0-C , 11-H ) :   0.9421
B(  1-C ,  2-C ) :   1.4593 B(  1-C , 18-H ) :   0.9444 B(  2-C ,  3-N ) :   1.2624
B(  2-C , 12-H ) :   0.8857 B(  3-N ,  4-C ) :   1.2778 B(  3-N ,  6-C ) :   0.8806
B(  4-C ,  5-C ) :   1.4617 B(  4-C , 13-H ) :   0.9302 B(  5-C , 14-H ) :   0.9428
B(  6-C ,  7-C ) :   1.0097 B(  6-C , 15-H ) :   0.8999 B(  6-C , 20-C ) :   0.8553
B(  7-C ,  8-O ) :   1.9870 B(  7-C ,  9-O ) :   1.2618 B(  9-O , 10-C ) :   0.8902
B( 10-C , 16-H ) :   0.9642 B( 10-C , 17-H ) :   0.9652 B( 10-C , 40-H ) :   0.9674
B( 12-H , 39-O ) :   0.1165 B( 19-C , 20-C ) :   1.0330 B( 19-C , 29-N ) :   1.4879
B( 19-C , 30-O ) :   0.2464 B( 19-C , 39-O ) :   0.1484 B( 19-C , 41-F ) :   1.1081
B( 20-C , 21-C ) :   0.9389 B( 20-C , 31-H ) :   0.9080 B( 21-C , 22-C ) :   1.3813
B( 21-C , 26-C ) :   1.2899 B( 22-C , 23-C ) :   1.3990 B( 22-C , 32-H ) :   0.9762
B( 23-C , 24-C ) :   1.4015 B( 23-C , 33-H ) :   0.9841 B( 24-C , 25-C ) :   1.3909
B( 24-C , 34-H ) :   0.9675 B( 25-C , 26-C ) :   1.3700 B( 25-C , 35-H ) :   0.9620
B( 26-C , 27-O ) :   1.1021 B( 27-O , 28-C ) :   0.9356 B( 28-C , 36-H ) :   0.9649
B( 28-C , 37-H ) :   0.9622 B( 28-C , 38-H ) :   0.9612 B( 29-N , 30-O ) :   1.2272
B( 29-N , 39-O ) :   1.1919

Dispersion correction           -0.052793299
FINAL SINGLE POINT ENERGY     -1242.530560733206

DIPOLE MOMENT
-------------
                                X             Y             Z
Electronic contribution:     -8.79873      -1.33917      11.25373
Nuclear contribution   :     12.19903       7.94978     -12.30360
                        -----------------------------------------
Total Dipole Moment    :      3.40030       6.61061      -1.04986
                        -----------------------------------------
Magnitude (a.u.)       :      7.50763
Magnitude (Debye)      :     19.08287

Dispersion correction in the Hessian             ... done   (      0.6 sec)

VIBRATIONAL FREQUENCIES
-----------------------

Scaling factor for frequencies =  1.000000000  (already applied!)

   0:         0.00 cm**-1
   1:         0.00 cm**-1
   2:         0.00 cm**-1
   3:         0.00 cm**-1
   4:         0.00 cm**-1
   5:         0.00 cm**-1
   6:        26.73 cm**-1
   7:        39.05 cm**-1
   8:        51.88 cm**-1
   9:        58.75 cm**-1
  10:        69.57 cm**-1
  11:        80.02 cm**-1
  12:        88.07 cm**-1
  13:        95.67 cm**-1
  14:       101.09 cm**-1
  15:       109.61 cm**-1
  16:       138.23 cm**-1
  17:       142.83 cm**-1
  18:       164.15 cm**-1
  19:       175.38 cm**-1
  20:       192.51 cm**-1
  21:       193.41 cm**-1
  22:       224.89 cm**-1
  23:       251.13 cm**-1
  24:       254.01 cm**-1
  25:       276.46 cm**-1
  26:       296.42 cm**-1
  27:       310.31 cm**-1
  28:       314.11 cm**-1
  29:       360.67 cm**-1
  30:       372.10 cm**-1
  31:       401.16 cm**-1
  32:       427.58 cm**-1
  33:       465.42 cm**-1
  34:       477.29 cm**-1
  35:       503.06 cm**-1
  36:       548.89 cm**-1
  37:       575.22 cm**-1
  38:       581.74 cm**-1
  39:       594.83 cm**-1
  40:       607.16 cm**-1
  41:       652.72 cm**-1
  42:       660.02 cm**-1
  43:       680.32 cm**-1
  44:       691.76 cm**-1
  45:       715.25 cm**-1
  46:       742.41 cm**-1
  47:       756.86 cm**-1
  48:       769.67 cm**-1
  49:       785.10 cm**-1
  50:       808.42 cm**-1
  51:       811.03 cm**-1
  52:       837.04 cm**-1
  53:       856.53 cm**-1
  54:       874.46 cm**-1
  55:       894.55 cm**-1
  56:       925.08 cm**-1
  57:       931.69 cm**-1
  58:       960.10 cm**-1
  59:       990.04 cm**-1
  60:       998.05 cm**-1
  61:      1036.21 cm**-1
  62:      1042.55 cm**-1
  63:      1051.86 cm**-1
  64:      1064.32 cm**-1
  65:      1070.96 cm**-1
  66:      1082.62 cm**-1
  67:      1084.45 cm**-1
  68:      1088.73 cm**-1
  69:      1127.67 cm**-1
  70:      1133.01 cm**-1
  71:      1158.63 cm**-1
  72:      1169.43 cm**-1
  73:      1171.77 cm**-1
  74:      1174.08 cm**-1
  75:      1177.10 cm**-1
  76:      1197.45 cm**-1
  77:      1208.20 cm**-1
  78:      1212.24 cm**-1
  79:      1230.76 cm**-1
  80:      1234.63 cm**-1
  81:      1257.21 cm**-1
  82:      1265.49 cm**-1
  83:      1275.99 cm**-1
  84:      1286.99 cm**-1
  85:      1297.42 cm**-1
  86:      1314.96 cm**-1
  87:      1323.01 cm**-1
  88:      1356.02 cm**-1
  89:      1376.26 cm**-1
  90:      1388.79 cm**-1
  91:      1420.24 cm**-1
  92:      1421.70 cm**-1
  93:      1465.50 cm**-1
  94:      1465.63 cm**-1
  95:      1470.58 cm**-1
  96:      1472.64 cm**-1
  97:      1473.03 cm**-1
  98:      1483.82 cm**-1
  99:      1498.64 cm**-1
 100:      1529.95 cm**-1
 101:      1533.76 cm**-1
 102:      1535.61 cm**-1
 103:      1638.06 cm**-1
 104:      1645.40 cm**-1
 105:      1653.65 cm**-1
 106:      1665.47 cm**-1
 107:      1697.25 cm**-1
 108:      1788.90 cm**-1
 109:      3040.06 cm**-1
 110:      3054.53 cm**-1
 111:      3073.16 cm**-1
 112:      3111.79 cm**-1
 113:      3112.06 cm**-1
 114:      3157.96 cm**-1
 115:      3167.55 cm**-1
 116:      3179.33 cm**-1
 117:      3190.00 cm**-1
 118:      3193.70 cm**-1
 119:      3206.61 cm**-1
 120:      3218.43 cm**-1
 121:      3222.72 cm**-1
 122:      3231.03 cm**-1
 123:      3239.08 cm**-1
 124:      3244.20 cm**-1
 125:      3250.30 cm**-1

IR SPECTRUM
-----------

 Mode   freq       eps      Int      T**2         TX        TY        TZ
       cm**-1   L/(mol*cm) km/mol    a.u.
----------------------------------------------------------------------------
  6:     26.73   0.000085    0.43  0.000993  (-0.027929 -0.014263  0.003030)
  7:     39.05   0.000911    4.61  0.007283  (-0.050253  0.012233 -0.067880)
  8:     51.88   0.001084    5.48  0.006519  ( 0.017993 -0.069818  0.036337)
  9:     58.75   0.000268    1.35  0.001424  (-0.018067  0.033124 -0.000469)
 10:     69.57   0.001848    9.34  0.008287  (-0.039353 -0.074676  0.034085)
 11:     80.02   0.002212   11.18  0.008628  ( 0.047178 -0.013941 -0.078788)
 12:     88.07   0.000525    2.66  0.001862  ( 0.030583 -0.027209 -0.013655)
 13:     95.67   0.001754    8.86  0.005720  ( 0.016177 -0.071201 -0.019727)
 14:    101.09   0.002191   11.07  0.006765  ( 0.045117 -0.031918  0.060915)
 15:    109.61   0.000446    2.25  0.001270  (-0.020775  0.013081 -0.025827)
 16:    138.23   0.000609    3.08  0.001374  (-0.014200 -0.028016 -0.019684)
 17:    142.83   0.000737    3.73  0.001611  (-0.007719  0.029915  0.025627)
 18:    164.15   0.000192    0.97  0.000366  (-0.001036  0.016308  0.009938)
 19:    175.38   0.002881   14.56  0.005127  ( 0.031874  0.032917 -0.055023)
 20:    192.51   0.000005    0.02  0.000008  ( 0.002489 -0.001127  0.000346)
 21:    193.41   0.003183   16.08  0.005135  (-0.039803  0.056283  0.019582)
 22:    224.89   0.002485   12.56  0.003449  (-0.027451 -0.041979  0.030544)
 23:    251.13   0.000359    1.82  0.000446  ( 0.001184 -0.017089  0.012369)
 24:    254.01   0.002121   10.72  0.002606  (-0.016840  0.047405  0.008655)
 25:    276.46   0.004472   22.60  0.005048  (-0.021126  0.060822  0.030040)
 26:    296.42   0.000668    3.38  0.000703  (-0.016042 -0.002466  0.020976)
 27:    310.31   0.000465    2.35  0.000468  (-0.004575 -0.021135 -0.000397)
 28:    314.11   0.000246    1.24  0.000245  ( 0.000543  0.014225  0.006479)
 29:    360.67   0.002350   11.88  0.002034  ( 0.000273 -0.018718 -0.041025)
 30:    372.10   0.002027   10.24  0.001700  ( 0.013064 -0.018524 -0.034434)
 31:    401.16   0.002436   12.31  0.001895  (-0.029923 -0.024920 -0.019457)
 32:    427.58   0.000649    3.28  0.000474  (-0.005901 -0.018926 -0.008978)
 33:    465.42   0.000334    1.69  0.000224  ( 0.002554 -0.010455  0.010408)
 34:    477.29   0.000176    0.89  0.000115  ( 0.004737  0.009482 -0.001570)
 35:    503.06   0.001081    5.46  0.000670  ( 0.019309 -0.010928 -0.013345)
 36:    548.89   0.004700   23.75  0.002672  (-0.005224  0.022901 -0.046049)
 37:    575.22   0.003571   18.05  0.001937  (-0.024327 -0.007500  0.035905)
 38:    581.74   0.003084   15.59  0.001654  ( 0.004867 -0.039208 -0.009668)
 39:    594.83   0.005302   26.79  0.002782  (-0.021278 -0.041085  0.025316)
 40:    607.16   0.002516   12.71  0.001293  (-0.027857 -0.001835  0.022664)
 41:    652.72   0.001830    9.25  0.000875  (-0.014251  0.014268 -0.021642)
 42:    660.02   0.001520    7.68  0.000718  ( 0.000448  0.026667 -0.002669)
 43:    680.32   0.001046    5.29  0.000480  ( 0.005166  0.017441 -0.012204)
 44:    691.76   0.009871   49.88  0.004453  ( 0.056621 -0.001105  0.035296)
 45:    715.25   0.029487  149.02  0.012865  ( 0.040618 -0.077116  0.072585)
 46:    742.41   0.004866   24.59  0.002045  ( 0.013674  0.023774  0.035961)
 47:    756.86   0.000710    3.59  0.000293  (-0.011046 -0.001244 -0.013005)
 48:    769.67   0.022997  116.22  0.009324  (-0.038005  0.021568 -0.086109)
 49:    785.10   0.003406   17.21  0.001354  (-0.023411 -0.004883 -0.027962)
 50:    808.42   0.001612    8.15  0.000622  ( 0.010520 -0.019998  0.010571)
 51:    811.03   0.001321    6.68  0.000508  ( 0.011222 -0.014059 -0.013596)
 52:    837.04   0.005352   27.05  0.001995  ( 0.005905  0.008396 -0.043474)
 53:    856.53   0.003964   20.03  0.001444  ( 0.012047 -0.034923 -0.008915)
 54:    874.46   0.000203    1.02  0.000072  (-0.007546  0.001017 -0.003790)
 55:    894.55   0.000296    1.50  0.000103  (-0.007397  0.002411 -0.006545)
 56:    925.08   0.005393   27.26  0.001819  (-0.041631 -0.009289  0.000128)
 57:    931.69   0.012474   63.04  0.004178  (-0.047845 -0.035586  0.024951)
 58:    960.10   0.000326    1.65  0.000106  (-0.003412 -0.006939  0.006790)
 59:    990.04   0.000189    0.95  0.000060  (-0.006210 -0.004004 -0.002223)
 60:    998.05   0.000498    2.51  0.000156  ( 0.007709  0.005829  0.007885)
 61:   1036.21   0.003987   20.15  0.001201  ( 0.014842  0.013510 -0.028250)
 62:   1042.55   0.005218   26.37  0.001562  ( 0.007999  0.016968  0.034785)
 63:   1051.86   0.001334    6.74  0.000396  (-0.002775 -0.019695 -0.000220)
 64:   1064.32   0.005979   30.21  0.001753  (-0.024932 -0.002897 -0.033510)
 65:   1070.96   0.013819   69.84  0.004027  (-0.057850 -0.016468  0.020220)
 66:   1082.62   0.016021   80.96  0.004618  ( 0.040299  0.049147  0.024052)
 67:   1084.45   0.001797    9.08  0.000517  (-0.007868  0.021256 -0.001844)
 68:   1088.73   0.007606   38.44  0.002180  ( 0.042293  0.015653  0.012103)
 69:   1127.67   0.015710   79.39  0.004347  ( 0.053448  0.004078  0.038394)
 70:   1133.01   0.004132   20.88  0.001138  (-0.009039 -0.004415  0.032200)
 71:   1158.63   0.074481  376.40  0.020061  (-0.105721 -0.053953 -0.077283)
 72:   1169.43   0.000688    3.48  0.000184  ( 0.010436  0.008632 -0.000556)
 73:   1171.77   0.000114    0.57  0.000030  (-0.002113 -0.000159 -0.005077)
 74:   1174.08   0.001962    9.92  0.000522  ( 0.020659  0.007077 -0.006685)
 75:   1177.10   0.002555   12.91  0.000677  (-0.013853 -0.022031 -0.000160)
 76:   1197.45   0.008899   44.97  0.002319  ( 0.044117  0.012011  0.015116)
 77:   1208.20   0.003071   15.52  0.000793  ( 0.003861  0.014808  0.023644)
 78:   1212.24   0.001652    8.35  0.000425  (-0.003833  0.014472 -0.014183)
 79:   1230.76   0.002443   12.34  0.000619  (-0.013150  0.008944  0.019142)
 80:   1234.63   0.011757   59.42  0.002972  (-0.007573  0.052190  0.013809)
 81:   1257.21   0.032372  163.59  0.008035  (-0.049057  0.005939  0.074789)
 82:   1265.49   0.010023   50.65  0.002472  ( 0.012105  0.046422  0.013042)
 83:   1275.99   0.089770  453.66  0.021955  (-0.005012 -0.101735 -0.107609)
 84:   1286.99   0.006931   35.03  0.001681  (-0.027336 -0.022579 -0.020578)
 85:   1297.42   0.085541  432.29  0.020575  ( 0.056225  0.103990 -0.081239)
 86:   1314.96   0.027345  138.19  0.006489  ( 0.014306 -0.021450 -0.076319)
 87:   1323.01   0.059691  301.65  0.014079  ( 0.010803  0.062408 -0.100339)
 88:   1356.02   0.012225   61.78  0.002813  ( 0.032683 -0.008590 -0.040882)
 89:   1376.26   0.002417   12.21  0.000548  (-0.016696 -0.005322 -0.015524)
 90:   1388.79   0.007502   37.91  0.001686  (-0.022874 -0.033911  0.003537)
 91:   1420.24   0.016035   81.03  0.003523  ( 0.010777  0.053636  0.023029)
 92:   1421.70   0.007793   39.38  0.001711  ( 0.026466 -0.003956  0.031536)
 93:   1465.50   0.008547   43.19  0.001820  ( 0.017913  0.038611 -0.002880)
 94:   1465.63   0.002244   11.34  0.000478  ( 0.004583  0.016436  0.013663)
 95:   1470.58   0.015149   76.56  0.003215  ( 0.007913  0.026684  0.049397)
 96:   1472.64   0.002921   14.76  0.000619  ( 0.022776 -0.010010  0.000048)
 97:   1473.03   0.003095   15.64  0.000656  (-0.011015  0.004811 -0.022610)
 98:   1483.82   0.006227   31.47  0.001310  ( 0.004957  0.035295  0.006271)
 99:   1498.64   0.013292   67.17  0.002768  ( 0.024727  0.046312  0.003409)
100:   1529.95   0.013238   66.90  0.002700  (-0.036288 -0.036685  0.006127)
101:   1533.76   0.037641  190.22  0.007659  ( 0.038465  0.078585  0.001875)
102:   1535.61   0.011506   58.15  0.002338  (-0.013495  0.042123  0.019541)
103:   1638.06   0.070646  357.02  0.013459  (-0.067985 -0.092146  0.018592)
104:   1645.40   0.018730   94.66  0.003552  (-0.042775 -0.037609  0.017556)
105:   1653.65   0.023833  120.44  0.004498  (-0.032460 -0.057371  0.012350)
106:   1665.47   0.004152   20.98  0.000778  ( 0.002059 -0.023879 -0.014269)
107:   1697.25   0.020196  102.06  0.003713  (-0.031406  0.037202  0.036647)
108:   1788.90   0.109359  552.66  0.019077  ( 0.112948 -0.078741  0.010938)
109:   3040.06   0.012660   63.98  0.001300  (-0.030182 -0.017570  0.008941)
110:   3054.53   0.000591    2.99  0.000060  (-0.000612  0.005373  0.005577)
111:   3073.16   0.006093   30.79  0.000619  ( 0.007962  0.007590  0.022309)
112:   3111.79   0.007563   38.22  0.000758  (-0.021413  0.002000 -0.017205)
113:   3112.06   0.003251   16.43  0.000326  ( 0.000446 -0.005334  0.017244)
114:   3157.96   0.003487   17.62  0.000345  (-0.007737 -0.014077  0.009304)
115:   3167.55   0.003594   18.16  0.000354  ( 0.002306 -0.017785 -0.005699)
116:   3179.33   0.021484  108.57  0.002109  (-0.005317  0.043617  0.013343)
117:   3190.00   0.002071   10.47  0.000203  (-0.010602  0.008464  0.004307)
118:   3193.70   0.000476    2.41  0.000047  (-0.005609  0.002049  0.003296)
119:   3206.61   0.001639    8.28  0.000160  ( 0.007090 -0.008628 -0.005899)
120:   3218.43   0.002998   15.15  0.000291  (-0.002440 -0.016810 -0.001470)
121:   3222.72   0.000062    0.31  0.000006  ( 0.001939 -0.000263 -0.001475)
122:   3231.03   0.000484    2.44  0.000047  (-0.006425 -0.000927  0.002140)
123:   3239.08   0.000870    4.39  0.000084  ( 0.006914 -0.003950 -0.004513)
124:   3244.20   0.000789    3.99  0.000076  ( 0.007373  0.003844 -0.002603)
125:   3250.30   0.001278    6.46  0.000123  ( 0.009045  0.006335 -0.000890)

--------------------------
THERMOCHEMISTRY AT 298.15K
--------------------------

Temperature         ... 298.15 K
Pressure            ... 1.00 atm
Total Mass          ... 348.33 AMU

Throughout the following assumptions are being made:
  (1) The electronic state is orbitally nondegenerate
  (2) There are no thermally accessible electronically excited states
  (3) Hindered rotations indicated by low frequency modes are not
      treated as such but are treated as vibrations and this may
      cause some error
  (4) All equations used are the standard statistical mechanics
      equations for an ideal gas
  (5) All vibrations are strictly harmonic

freq.      26.73  E(vib)   ...       0.56
freq.      39.05  E(vib)   ...       0.54
freq.      51.88  E(vib)   ...       0.52
freq.      58.75  E(vib)   ...       0.51
freq.      69.57  E(vib)   ...       0.50
freq.      80.02  E(vib)   ...       0.49
freq.      88.07  E(vib)   ...       0.48
freq.      95.67  E(vib)   ...       0.47
freq.     101.09  E(vib)   ...       0.46
freq.     109.61  E(vib)   ...       0.45
freq.     138.23  E(vib)   ...       0.42
freq.     142.83  E(vib)   ...       0.41
freq.     164.15  E(vib)   ...       0.39
freq.     175.38  E(vib)   ...       0.38
freq.     192.51  E(vib)   ...       0.36
freq.     193.41  E(vib)   ...       0.36
freq.     224.89  E(vib)   ...       0.33
freq.     251.13  E(vib)   ...       0.30
freq.     254.01  E(vib)   ...       0.30
freq.     276.46  E(vib)   ...       0.28
freq.     296.42  E(vib)   ...       0.27
freq.     310.31  E(vib)   ...       0.26
freq.     314.11  E(vib)   ...       0.25
freq.     360.67  E(vib)   ...       0.22
freq.     372.10  E(vib)   ...       0.21
freq.     401.16  E(vib)   ...       0.19
freq.     427.58  E(vib)   ...       0.18
freq.     465.42  E(vib)   ...       0.16
freq.     477.29  E(vib)   ...       0.15
freq.     503.06  E(vib)   ...       0.14
freq.     548.89  E(vib)   ...       0.12
freq.     575.22  E(vib)   ...       0.11
freq.     581.74  E(vib)   ...       0.11
freq.     594.83  E(vib)   ...       0.10
freq.     607.16  E(vib)   ...       0.10
freq.     652.72  E(vib)   ...       0.08
freq.     660.02  E(vib)   ...       0.08
freq.     680.32  E(vib)   ...       0.08
freq.     691.76  E(vib)   ...       0.07
freq.     715.25  E(vib)   ...       0.07
freq.     742.41  E(vib)   ...       0.06
freq.     756.86  E(vib)   ...       0.06
freq.     769.67  E(vib)   ...       0.05
freq.     785.10  E(vib)   ...       0.05
freq.     808.42  E(vib)   ...       0.05
freq.     811.03  E(vib)   ...       0.05
freq.     837.04  E(vib)   ...       0.04
freq.     856.53  E(vib)   ...       0.04
freq.     874.46  E(vib)   ...       0.04
freq.     894.55  E(vib)   ...       0.03
freq.     925.08  E(vib)   ...       0.03
freq.     931.69  E(vib)   ...       0.03
freq.     960.10  E(vib)   ...       0.03
freq.     990.04  E(vib)   ...       0.02
freq.     998.05  E(vib)   ...       0.02
freq.    1036.21  E(vib)   ...       0.02
freq.    1042.55  E(vib)   ...       0.02
freq.    1051.86  E(vib)   ...       0.02
freq.    1064.32  E(vib)   ...       0.02
freq.    1070.96  E(vib)   ...       0.02
freq.    1082.62  E(vib)   ...       0.02
freq.    1084.45  E(vib)   ...       0.02
freq.    1088.73  E(vib)   ...       0.02
freq.    1127.67  E(vib)   ...       0.01
freq.    1133.01  E(vib)   ...       0.01
freq.    1158.63  E(vib)   ...       0.01
freq.    1169.43  E(vib)   ...       0.01
freq.    1171.77  E(vib)   ...       0.01
freq.    1174.08  E(vib)   ...       0.01
freq.    1177.10  E(vib)   ...       0.01
freq.    1197.45  E(vib)   ...       0.01
freq.    1208.20  E(vib)   ...       0.01
freq.    1212.24  E(vib)   ...       0.01
freq.    1230.76  E(vib)   ...       0.01
freq.    1234.63  E(vib)   ...       0.01
freq.    1257.21  E(vib)   ...       0.01
freq.    1265.49  E(vib)   ...       0.01
freq.    1275.99  E(vib)   ...       0.01
freq.    1286.99  E(vib)   ...       0.01
freq.    1297.42  E(vib)   ...       0.01
freq.    1314.96  E(vib)   ...       0.01
freq.    1323.01  E(vib)   ...       0.01
freq.    1356.02  E(vib)   ...       0.01
freq.    1376.26  E(vib)   ...       0.01
freq.    1388.79  E(vib)   ...       0.00
freq.    1420.24  E(vib)   ...       0.00
freq.    1421.70  E(vib)   ...       0.00
freq.    1465.50  E(vib)   ...       0.00
freq.    1465.63  E(vib)   ...       0.00
freq.    1470.58  E(vib)   ...       0.00
freq.    1472.64  E(vib)   ...       0.00
freq.    1473.03  E(vib)   ...       0.00
freq.    1483.82  E(vib)   ...       0.00
freq.    1498.64  E(vib)   ...       0.00
freq.    1529.95  E(vib)   ...       0.00
freq.    1533.76  E(vib)   ...       0.00
freq.    1535.61  E(vib)   ...       0.00
freq.    1638.06  E(vib)   ...       0.00
freq.    1645.40  E(vib)   ...       0.00
freq.    1653.65  E(vib)   ...       0.00
freq.    1665.47  E(vib)   ...       0.00
freq.    1697.25  E(vib)   ...       0.00
freq.    1788.90  E(vib)   ...       0.00
freq.    3040.06  E(vib)   ...       0.00
freq.    3054.53  E(vib)   ...       0.00
freq.    3073.16  E(vib)   ...       0.00
freq.    3111.79  E(vib)   ...       0.00
freq.    3112.06  E(vib)   ...       0.00
freq.    3157.96  E(vib)   ...       0.00
freq.    3167.55  E(vib)   ...       0.00
freq.    3179.33  E(vib)   ...       0.00
freq.    3190.00  E(vib)   ...       0.00
freq.    3193.70  E(vib)   ...       0.00
freq.    3206.61  E(vib)   ...       0.00
freq.    3218.43  E(vib)   ...       0.00
freq.    3222.72  E(vib)   ...       0.00
freq.    3231.03  E(vib)   ...       0.00
freq.    3239.08  E(vib)   ...       0.00
freq.    3244.20  E(vib)   ...       0.00
freq.    3250.30  E(vib)   ...       0.00

------------
INNER ENERGY
------------

The inner energy is: U= E(el) + E(ZPE) + E(vib) + E(rot) + E(trans)
    E(el)   - is the total energy from the electronic structure calculation
              = E(kin-el) + E(nuc-el) + E(el-el) + E(nuc-nuc)
    E(ZPE)  - the the zero temperature vibrational energy from the frequency calculation
    E(vib)  - the the finite temperature correction to E(ZPE) due to population
              of excited vibrational states
    E(rot)  - is the rotational thermal energy
    E(trans)- is the translational thermal energy

Summary of contributions to the inner energy U:
Electronic energy                ...  -1242.53056073 Eh
Zero point energy                ...      0.32696628 Eh     205.17 kcal/mol
Thermal vibrational correction   ...      0.01982342 Eh      12.44 kcal/mol
Thermal rotational correction    ...      0.00141627 Eh       0.89 kcal/mol
Thermal translational correction ...      0.00141627 Eh       0.89 kcal/mol
-----------------------------------------------------------------------
Total thermal energy                  -1242.18093849 Eh

Rotational constants in cm-1:     0.010565     0.006432     0.005785

                             ****ORCA TERMINATED NORMALLY****
TOTAL RUN TIME: 0 days 1 hours 19 minutes 57 seconds 190 msec
