                         Program Version 5.0.4 -  RELEASE  -
|  1> %pal nprocs 24 end
|  2> ! PBE0 D3BJ def2-TZVP TightSCF OPT FREQ TightOpt
|  3> ! CPCM(dmso)
|  4> %scf
|  5> MaxIter 800
|  6> end
|  7>
|  8> %geom
|  9> MaxIter 800
| 10> MaxStep 0.15
| 11> end
| 12>
| 13> *xyz 0 1
| 14> C      -3.27843600      2.15061400      1.48879400
| 15> C      -3.64349400      0.89413700      1.01393900
| 16> C      -2.66636100     -0.06627400      0.81977000
| 17> N      -1.36993600      0.20456600      1.10425300
| 18> C      -0.99155000      1.42687100      1.53931500
| 19> C      -1.93502800      2.41290600      1.75665500
| 20> C      -0.41902600     -0.81779300      0.69585100
| 21> C       0.79524000     -0.94900500      1.58149500
| 22> O       1.31632200     -0.07448800      2.23259600
| 23> O       1.23478700     -2.19453000      1.52666300
| 24> C       2.43097900     -2.48467500      2.24360200
| 25> H      -4.03482600      2.92176300      1.65025800
| 26> H      -2.88081500     -1.08680400      0.49455400
| 27> H       0.07205700      1.56120000      1.72291000
| 28> H      -1.60435200      3.38513300      2.12374100
| 29> H      -0.95344700     -1.77800300      0.71100400
| 30> H       2.25682200     -2.39462900      3.32508400
| 31> H       3.23322700     -1.79614600      1.94767400
| 32> H      -4.68162600      0.64383600      0.79247700
| 33> C      -1.27255000     -0.70230500     -1.68738100
| 34> C      -0.05572900     -0.63729400     -0.83524900
| 35> C       0.73896000      0.62629700     -1.05056800
| 36> C       0.12643800      1.85539300     -1.30665400
| 37> C       0.86899100      3.02879900     -1.45015300
| 38> C       2.25439300      2.97435100     -1.33965800
| 39> C       2.89780200      1.76133400     -1.08944200
| 40> C       2.14706800      0.59073000     -0.94121500
| 41> O       2.69223200     -0.61628500     -0.68727900
| 42> C       4.09458900     -0.73449800     -0.61318500
| 43> N      -2.05651500     -1.78663700     -1.70907000
| 44> O      -3.02852300     -1.85995500     -2.49830600
| 45> H       0.59428900     -1.50824100     -1.02199500
| 46> H      -0.96142300      1.89845000     -1.39582400
| 47> H       0.36251000      3.97597100     -1.64708700
| 48> H       2.85324000      3.88203500     -1.44926400
| 49> H       3.98449100      1.73516600     -1.00750800
| 50> H       4.50466000     -0.13673500      0.21746700
| 51> H       4.57365600     -0.42087000     -1.55508400
| 52> H       4.30777600     -1.79525800     -0.43449000
| 53> O      -1.84188700     -2.73930000     -0.89406900
| 54> H       2.69666100     -3.51547700      1.98674800
| 55> H      -1.53010900      0.06836600     -2.40884100
| 56> *
| 57>
| 58>                          ****END OF INPUT****
 Total Charge           Charge          ....    0
 Multiplicity           Mult            ....    1
 Number of Electrons    NEL             ....  174
Dispersion correction           -0.054325006
FINAL SINGLE POINT ENERGY     -1143.344731970616
Dispersion correction            ... done
Dispersion correction           -0.054030272
FINAL SINGLE POINT ENERGY     -1143.346663539184
Dispersion correction            ... done
Dispersion correction           -0.054448126
FINAL SINGLE POINT ENERGY     -1143.346418897748
Dispersion correction            ... done
FINAL SINGLE POINT ENERGY     -1143.347175872708
FINAL SINGLE POINT ENERGY     -1143.347082837179
FINAL SINGLE POINT ENERGY     -1143.347373468732
FINAL SINGLE POINT ENERGY     -1143.347405961677
FINAL SINGLE POINT ENERGY     -1143.347447321386
FINAL SINGLE POINT ENERGY     -1143.347489308007
FINAL SINGLE POINT ENERGY     -1143.347489663812
FINAL SINGLE POINT ENERGY     -1143.347503128517
FINAL SINGLE POINT ENERGY     -1143.347506611073
Dispersion correction           -0.054234124
FINAL SINGLE POINT ENERGY     -1143.347505931795
Dispersion correction            ... done
Dispersion correction           -0.054234548
FINAL SINGLE POINT ENERGY     -1143.347506247805
Dispersion correction            ... done
                    ***********************HURRAY********************

CARTESIAN COORDINATES (ANGSTROEM)
---------------------------------
  C     -3.075147    2.292399    1.560521
  C     -3.544982    1.059851    1.133881
  C     -2.649194    0.044747    0.899201
  N     -1.327269    0.236162    1.081304
  C     -0.850916    1.434524    1.467305
  C     -1.712220    2.474149    1.730227
  C     -0.448568   -0.847211    0.662531
  C      0.721691   -1.080270    1.588673
  O      1.182149   -0.297550    2.381884
  O      1.167348   -2.311341    1.406313
  C      2.315982   -2.685762    2.174428
  H     -3.765520    3.103669    1.756291
  H     -2.953095   -0.945058    0.589241
  H      0.217757    1.517294    1.571620
  H     -1.301968    3.421480    2.052214
  H     -1.037798   -1.766694    0.668959
  H      2.069922   -2.690436    3.236225
  H      3.135296   -1.992077    1.990144
  H     -4.599710    0.872494    0.986356
  C     -1.243094   -0.810305   -1.714050
  C     -0.042799   -0.670411   -0.852691
  C      0.700952    0.617714   -1.081850
  C      0.047706    1.797605   -1.418541
  C      0.735038    2.992715   -1.583262
  C      2.107404    3.012903   -1.408104
  C      2.791652    1.851187   -1.075285
  C      2.095159    0.658366   -0.910843
  O      2.689321   -0.509730   -0.584800
  C      4.097163   -0.525038   -0.437553
  N     -1.901292   -1.956542   -1.768432
  O     -2.920084   -2.090938   -2.516095
  H      0.631998   -1.513823   -1.022157
  H     -1.028243    1.789596   -1.547589
  H      0.197224    3.896638   -1.842348
  H      2.662097    3.936415   -1.530111
  H      3.864642    1.882886   -0.943829
  H      4.414006    0.117859    0.388600
  H      4.592504   -0.205524   -1.358434
  H      4.365364   -1.556641   -0.219738
  O     -1.528975   -2.942040   -1.049003
  H      2.578359   -3.685376    1.839339
  H     -1.618303   -0.025171   -2.348014

 Multiplicity           Mult            ....    1
 Number of Electrons    NEL             ....  174
 Basis Dimension        Dim             ....  852

ORBITAL ENERGIES
----------------

  NO   OCC          E(Eh)            E(eV)
   0   2.0000     -19.269891      -524.3604
   1   2.0000     -19.247982      -523.7642
   2   2.0000     -19.213660      -522.8303
   3   2.0000     -19.169908      -521.6397
   4   2.0000     -19.162064      -521.4263
   5   2.0000     -14.550177      -395.9304
   6   2.0000     -14.510612      -394.8538
   7   2.0000     -10.372206      -282.2421
   8   2.0000     -10.309657      -280.5400
   9   2.0000     -10.307334      -280.4768
  10   2.0000     -10.299914      -280.2749
  11   2.0000     -10.293565      -280.1022
  12   2.0000     -10.275330      -279.6059
  13   2.0000     -10.273067      -279.5444
  14   2.0000     -10.267659      -279.3972
  15   2.0000     -10.264656      -279.3155
  16   2.0000     -10.263688      -279.2891
  17   2.0000     -10.260789      -279.2103
  18   2.0000     -10.242288      -278.7068
  19   2.0000     -10.232433      -278.4387
  20   2.0000     -10.231282      -278.4073
  21   2.0000     -10.227470      -278.3036
  22   2.0000     -10.226611      -278.2802
  23   2.0000     -10.222699      -278.1738
  24   2.0000      -1.177729       -32.0476
  25   2.0000      -1.162899       -31.6441
  26   2.0000      -1.110794       -30.2262
  27   2.0000      -1.081765       -29.4363
  28   2.0000      -1.067502       -29.0482
  29   2.0000      -0.994808       -27.0701
  30   2.0000      -0.905612       -24.6430
  31   2.0000      -0.890004       -24.2182
  32   2.0000      -0.854278       -23.2461
  33   2.0000      -0.841351       -22.8943
  34   2.0000      -0.812583       -22.1115
  35   2.0000      -0.795120       -21.6363
  36   2.0000      -0.779943       -21.2233
  37   2.0000      -0.753684       -20.5088
  38   2.0000      -0.726033       -19.7564
  39   2.0000      -0.711676       -19.3657
  40   2.0000      -0.707113       -19.2415
  41   2.0000      -0.678717       -18.4688
  42   2.0000      -0.632991       -17.2246
  43   2.0000      -0.620393       -16.8817
  44   2.0000      -0.613034       -16.6815
  45   2.0000      -0.578207       -15.7338
  46   2.0000      -0.566166       -15.4062
  47   2.0000      -0.563453       -15.3323
  48   2.0000      -0.553998       -15.0750
  49   2.0000      -0.547046       -14.8859
  50   2.0000      -0.532769       -14.4974
  51   2.0000      -0.528497       -14.3811
  52   2.0000      -0.521566       -14.1925
  53   2.0000      -0.511357       -13.9147
  54   2.0000      -0.503618       -13.7041
  55   2.0000      -0.499728       -13.5983
  56   2.0000      -0.497393       -13.5348
  57   2.0000      -0.494069       -13.4443
  58   2.0000      -0.488237       -13.2856
  59   2.0000      -0.485552       -13.2126
  60   2.0000      -0.479845       -13.0572
  61   2.0000      -0.471075       -12.8186
  62   2.0000      -0.451270       -12.2797
  63   2.0000      -0.449355       -12.2276
  64   2.0000      -0.434559       -11.8250
  65   2.0000      -0.432106       -11.7582
  66   2.0000      -0.424623       -11.5546
  67   2.0000      -0.414419       -11.2769
  68   2.0000      -0.412266       -11.2183
  69   2.0000      -0.408978       -11.1289
  70   2.0000      -0.400605       -10.9010
  71   2.0000      -0.392838       -10.6897
  72   2.0000      -0.384216       -10.4550
  73   2.0000      -0.380879       -10.3643
  74   2.0000      -0.365907        -9.9568
  75   2.0000      -0.345960        -9.4140
  76   2.0000      -0.344757        -9.3813
  77   2.0000      -0.341586        -9.2950
  78   2.0000      -0.335402        -9.1268
  79   2.0000      -0.322818        -8.7843
  80   2.0000      -0.311006        -8.4629
  81   2.0000      -0.288750        -7.8573
  82   2.0000      -0.277241        -7.5441
  83   2.0000      -0.271631        -7.3914
  84   2.0000      -0.252975        -6.8838
  85   2.0000      -0.242333        -6.5942
  86   2.0000      -0.208247        -5.6667
  87   0.0000      -0.082086        -2.2337
  88   0.0000      -0.045862        -1.2480
  89   0.0000      -0.020877        -0.5681
  90   0.0000      -0.010358        -0.2819
  91   0.0000       0.001836         0.0500

MULLIKEN ATOMIC CHARGES
-----------------------
   0 C :   -0.088621
   1 C :   -0.144476
   2 C :   -0.012950
   3 N :    0.164118
   4 C :   -0.032446
   5 C :   -0.134533
   6 C :   -0.096969
   7 C :    0.310792
   8 O :   -0.387056
   9 O :   -0.209116
  10 C :   -0.266786
  11 H :    0.186932
  12 H :    0.207801
  13 H :    0.207782
  14 H :    0.188257
  15 H :    0.177432
  16 H :    0.160560
  17 H :    0.153816
  18 H :    0.190359
  19 C :   -0.421018
  20 C :    0.182528
  21 C :   -0.057712
  22 C :   -0.184424
  23 C :   -0.185239
  24 C :   -0.154695
  25 C :   -0.298563
  26 C :    0.252420
  27 O :   -0.254309
  28 C :   -0.297170
  29 N :    0.479363
  30 O :   -0.594067
  31 H :    0.114730
  32 H :    0.157063
  33 H :    0.147091
  34 H :    0.152229
  35 H :    0.165603
  36 H :    0.154330
  37 H :    0.159553
  38 H :    0.168489
  39 O :   -0.576767
  40 H :    0.166284
  41 H :    0.149384
Sum of atomic charges:    0.0000000

LOEWDIN ATOMIC CHARGES
----------------------
   0 C :   -0.060007
   1 C :   -0.102085
   2 C :   -0.081241
   3 N :    0.339810
   4 C :   -0.080248
   5 C :   -0.103278
   6 C :   -0.160600
   7 C :   -0.478621
   8 O :    0.099454
   9 O :    0.280680
  10 C :   -0.296082
  11 H :    0.171137
  12 H :    0.175259
  13 H :    0.173547
  14 H :    0.173150
  15 H :    0.185949
  16 H :    0.121106
  17 H :    0.119322
  18 H :    0.173447
  19 C :   -0.282342
  20 C :   -0.193979
  21 C :   -0.109004
  22 C :   -0.110983
  23 C :   -0.164071
  24 C :   -0.142853
  25 C :   -0.137709
  26 C :   -0.232442
  27 O :    0.254894
  28 C :   -0.327967
  29 N :   -0.082652
  30 O :   -0.292484
  31 H :    0.182747
  32 H :    0.161982
  33 H :    0.152881
  34 H :    0.155185
  35 H :    0.161101
  36 H :    0.118218
  37 H :    0.119640
  38 H :    0.121942
  39 O :   -0.265838
  40 H :    0.124521
  41 H :    0.138515

  Mayer bond orders larger than 0.100000
B(  0-C ,  1-C ) :   1.4040 B(  0-C ,  5-C ) :   1.4118 B(  0-C , 11-H ) :   0.9433
B(  1-C ,  2-C ) :   1.4497 B(  1-C , 18-H ) :   0.9453 B(  2-C ,  3-N ) :   1.2702
B(  2-C , 12-H ) :   0.9227 B(  3-N ,  4-C ) :   1.2831 B(  3-N ,  6-C ) :   0.8689
B(  4-C ,  5-C ) :   1.4289 B(  4-C , 13-H ) :   0.9241 B(  5-C , 14-H ) :   0.9487
B(  6-C ,  7-C ) :   0.9893 B(  6-C , 15-H ) :   0.9050 B(  6-C , 20-C ) :   0.8945
B(  6-C , 21-C ) :   0.1143 B(  7-C ,  8-O ) :   1.9127 B(  7-C ,  9-O ) :   1.2795
B(  9-O , 10-C ) :   0.8834 B( 10-C , 16-H ) :   0.9682 B( 10-C , 17-H ) :   0.9655
B( 10-C , 40-H ) :   0.9627 B( 19-C , 20-C ) :   0.9871 B( 19-C , 29-N ) :   1.4997
B( 19-C , 30-O ) :   0.1820 B( 19-C , 39-O ) :   0.1627 B( 19-C , 41-H ) :   0.9695
B( 20-C , 21-C ) :   0.8814 B( 20-C , 31-H ) :   0.9021 B( 21-C , 22-C ) :   1.3848
B( 21-C , 26-C ) :   1.3127 B( 22-C , 23-C ) :   1.4024 B( 22-C , 32-H ) :   0.9654
B( 23-C , 24-C ) :   1.4126 B( 23-C , 33-H ) :   0.9798 B( 24-C , 25-C ) :   1.3865
B( 24-C , 34-H ) :   0.9690 B( 25-C , 26-C ) :   1.3774 B( 25-C , 35-H ) :   0.9609
B( 26-C , 27-O ) :   1.1197 B( 27-O , 28-C ) :   0.9360 B( 28-C , 36-H ) :   0.9622
B( 28-C , 37-H ) :   0.9563 B( 28-C , 38-H ) :   0.9637 B( 29-N , 30-O ) :   1.2918
B( 29-N , 39-O ) :   1.2863

Dispersion correction           -0.054235556
FINAL SINGLE POINT ENERGY     -1143.347506086064

DIPOLE MOMENT
-------------
                                X             Y             Z
Electronic contribution:     -9.48716      -1.13253       0.17053
Nuclear contribution   :     11.58007       6.09762       4.11137
                        -----------------------------------------
Total Dipole Moment    :      2.09291       4.96510       4.28191
                        -----------------------------------------
Magnitude (a.u.)       :      6.88238
Magnitude (Debye)      :     17.49362

Dispersion correction in the Hessian             ... done   (      0.6 sec)

VIBRATIONAL FREQUENCIES
-----------------------

Scaling factor for frequencies =  1.000000000  (already applied!)

   0:         0.00 cm**-1
   1:         0.00 cm**-1
   2:         0.00 cm**-1
   3:         0.00 cm**-1
   4:         0.00 cm**-1
   5:         0.00 cm**-1
   6:        23.73 cm**-1
   7:        47.16 cm**-1
   8:        50.83 cm**-1
   9:        55.56 cm**-1
  10:        71.06 cm**-1
  11:        71.80 cm**-1
  12:        91.28 cm**-1
  13:        96.57 cm**-1
  14:       106.32 cm**-1
  15:       115.93 cm**-1
  16:       124.37 cm**-1
  17:       152.91 cm**-1
  18:       173.98 cm**-1
  19:       188.84 cm**-1
  20:       211.36 cm**-1
  21:       231.76 cm**-1
  22:       253.96 cm**-1
  23:       267.20 cm**-1
  24:       278.74 cm**-1
  25:       293.80 cm**-1
  26:       314.17 cm**-1
  27:       322.13 cm**-1
  28:       340.99 cm**-1
  29:       372.17 cm**-1
  30:       423.91 cm**-1
  31:       435.97 cm**-1
  32:       484.87 cm**-1
  33:       494.55 cm**-1
  34:       540.99 cm**-1
  35:       567.28 cm**-1
  36:       589.76 cm**-1
  37:       603.53 cm**-1
  38:       626.85 cm**-1
  39:       636.54 cm**-1
  40:       654.01 cm**-1
  41:       687.11 cm**-1
  42:       698.49 cm**-1
  43:       714.73 cm**-1
  44:       724.84 cm**-1
  45:       764.47 cm**-1
  46:       777.78 cm**-1
  47:       788.20 cm**-1
  48:       794.57 cm**-1
  49:       800.07 cm**-1
  50:       806.68 cm**-1
  51:       831.99 cm**-1
  52:       872.61 cm**-1
  53:       873.99 cm**-1
  54:       904.53 cm**-1
  55:       953.85 cm**-1
  56:       967.26 cm**-1
  57:       975.30 cm**-1
  58:       987.35 cm**-1
  59:       998.21 cm**-1
  60:      1006.33 cm**-1
  61:      1047.47 cm**-1
  62:      1051.50 cm**-1
  63:      1056.88 cm**-1
  64:      1064.68 cm**-1
  65:      1070.73 cm**-1
  66:      1086.38 cm**-1
  67:      1087.63 cm**-1
  68:      1124.15 cm**-1
  69:      1134.10 cm**-1
  70:      1162.32 cm**-1
  71:      1169.78 cm**-1
  72:      1171.64 cm**-1
  73:      1173.64 cm**-1
  74:      1176.30 cm**-1
  75:      1178.48 cm**-1
  76:      1190.33 cm**-1
  77:      1206.56 cm**-1
  78:      1212.31 cm**-1
  79:      1230.07 cm**-1
  80:      1235.21 cm**-1
  81:      1244.34 cm**-1
  82:      1264.66 cm**-1
  83:      1298.67 cm**-1
  84:      1307.37 cm**-1
  85:      1322.68 cm**-1
  86:      1342.06 cm**-1
  87:      1355.05 cm**-1
  88:      1378.57 cm**-1
  89:      1385.04 cm**-1
  90:      1401.65 cm**-1
  91:      1447.37 cm**-1
  92:      1464.66 cm**-1
  93:      1465.67 cm**-1
  94:      1472.69 cm**-1
  95:      1473.21 cm**-1
  96:      1479.23 cm**-1
  97:      1484.00 cm**-1
  98:      1497.51 cm**-1
  99:      1524.15 cm**-1
 100:      1534.29 cm**-1
 101:      1540.19 cm**-1
 102:      1541.45 cm**-1
 103:      1638.88 cm**-1
 104:      1646.69 cm**-1
 105:      1663.45 cm**-1
 106:      1694.55 cm**-1
 107:      1790.98 cm**-1
 108:      3038.39 cm**-1
 109:      3078.42 cm**-1
 110:      3080.25 cm**-1
 111:      3092.46 cm**-1
 112:      3110.49 cm**-1
 113:      3163.65 cm**-1
 114:      3167.98 cm**-1
 115:      3193.54 cm**-1
 116:      3195.97 cm**-1
 117:      3202.16 cm**-1
 118:      3216.20 cm**-1
 119:      3222.31 cm**-1
 120:      3233.53 cm**-1
 121:      3240.76 cm**-1
 122:      3243.28 cm**-1
 123:      3255.30 cm**-1
 124:      3277.73 cm**-1
 125:      3293.75 cm**-1

IR SPECTRUM
-----------

 Mode   freq       eps      Int      T**2         TX        TY        TZ
       cm**-1   L/(mol*cm) km/mol    a.u.
----------------------------------------------------------------------------
  6:     23.73   0.001115    5.63  0.014666  ( 0.003643  0.120976 -0.004152)
  7:     47.16   0.002767   13.98  0.018307  (-0.059903  0.016108  0.120246)
  8:     50.83   0.002295   11.60  0.014093  ( 0.093237 -0.065358 -0.033587)
  9:     55.56   0.001038    5.24  0.005828  ( 0.050041 -0.005674 -0.057371)
 10:     71.06   0.000534    2.70  0.002344  (-0.013958  0.014286 -0.044102)
 11:     71.80   0.001053    5.32  0.004578  (-0.032756 -0.052413 -0.027528)
 12:     91.28   0.000287    1.45  0.000980  (-0.029392  0.003439 -0.010202)
 13:     96.57   0.001707    8.62  0.005515  (-0.030017  0.018028 -0.065489)
 14:    106.32   0.001697    8.58  0.004982  ( 0.014628  0.004100  0.068930)
 15:    115.93   0.000754    3.81  0.002030  ( 0.037046 -0.016771 -0.019401)
 16:    124.37   0.001065    5.38  0.002673  ( 0.003068 -0.037407 -0.035557)
 17:    152.91   0.000113    0.57  0.000231  ( 0.003935 -0.011421  0.009247)
 18:    173.98   0.002001   10.11  0.003589  (-0.027389 -0.001827  0.053253)
 19:    188.84   0.000153    0.78  0.000254  ( 0.007846  0.001611 -0.013761)
 20:    211.36   0.000639    3.23  0.000944  (-0.025341  0.007659  0.015588)
 21:    231.76   0.001111    5.62  0.001497  ( 0.023083  0.016139 -0.026519)
 22:    253.96   0.004269   21.58  0.005246  ( 0.036450  0.039604  0.048469)
 23:    267.20   0.001371    6.93  0.001602  (-0.029801  0.019626  0.018121)
 24:    278.74   0.002709   13.69  0.003033  (-0.009608  0.054162  0.002746)
 25:    293.80   0.001535    7.76  0.001630  (-0.014682  0.036620  0.008576)
 26:    314.17   0.000252    1.27  0.000250  (-0.009828 -0.007981  0.009486)
 27:    322.13   0.000506    2.56  0.000490  ( 0.021423  0.005511 -0.000703)
 28:    340.99   0.001432    7.24  0.001311  ( 0.024562 -0.026560  0.001416)
 29:    372.17   0.003597   18.18  0.003016  ( 0.041420 -0.032029  0.016565)
 30:    423.91   0.000901    4.55  0.000663  ( 0.009560 -0.023746 -0.002787)
 31:    435.97   0.000663    3.35  0.000474  (-0.005170  0.019078  0.009145)
 32:    484.87   0.002137   10.80  0.001375  ( 0.026363  0.020114 -0.016605)
 33:    494.55   0.000237    1.20  0.000150  (-0.004152  0.002881 -0.011150)
 34:    540.99   0.006935   35.05  0.004000  (-0.006658 -0.006945  0.062511)
 35:    567.28   0.002773   14.02  0.001526  (-0.019901 -0.033609  0.000112)
 36:    589.76   0.002511   12.69  0.001329  ( 0.016974 -0.024505 -0.020979)
 37:    603.53   0.000561    2.83  0.000290  ( 0.006336  0.005454  0.014838)
 38:    626.85   0.012576   63.56  0.006261  (-0.059116  0.020522  0.048426)
 39:    636.54   0.005159   26.07  0.002529  ( 0.025746  0.023860  0.036015)
 40:    654.01   0.000482    2.44  0.000230  ( 0.003388 -0.007714 -0.012619)
 41:    687.11   0.006561   33.16  0.002980  (-0.017550 -0.028416 -0.043176)
 42:    698.49   0.010057   50.83  0.004493  ( 0.027106  0.040894 -0.045676)
 43:    714.73   0.000507    2.56  0.000221  ( 0.012350  0.008279  0.000389)
 44:    724.84   0.027032  136.61  0.011638  ( 0.019314 -0.001266  0.106129)
 45:    764.47   0.005375   27.16  0.002194  (-0.017563  0.036897  0.022898)
 46:    777.78   0.017039   86.11  0.006837  (-0.010747  0.000987  0.081976)
 47:    788.20   0.003227   16.31  0.001278  ( 0.024667 -0.015619 -0.020618)
 48:    794.57   0.006691   33.81  0.002628  (-0.001357  0.029894 -0.041622)
 49:    800.07   0.001652    8.35  0.000644  ( 0.004437 -0.024765  0.003366)
 50:    806.68   0.002986   15.09  0.001155  (-0.001360 -0.023397 -0.024613)
 51:    831.99   0.001415    7.15  0.000531  (-0.016112  0.016432  0.001137)
 52:    872.61   0.001276    6.45  0.000456  ( 0.012178  0.013150  0.011630)
 53:    873.99   0.000322    1.63  0.000115  ( 0.007573  0.004209 -0.006326)
 54:    904.53   0.004571   23.10  0.001577  (-0.023251 -0.020801 -0.024571)
 55:    953.85   0.006372   32.20  0.002085  (-0.020678  0.006413  0.040200)
 56:    967.26   0.008144   41.16  0.002628  ( 0.034428  0.036632  0.010014)
 57:    975.30   0.000608    3.07  0.000195  ( 0.011916  0.005138 -0.005120)
 58:    987.35   0.002205   11.14  0.000697  (-0.004777  0.024768 -0.007780)
 59:    998.21   0.000027    0.14  0.000008  (-0.002202  0.000950  0.001637)
 60:   1006.33   0.001051    5.31  0.000326  ( 0.011096  0.009872  0.010258)
 61:   1047.47   0.000714    3.61  0.000213  (-0.000665 -0.012683 -0.007168)
 62:   1051.50   0.031003  156.68  0.009201  (-0.015185 -0.094227 -0.009589)
 63:   1056.88   0.002454   12.40  0.000725  (-0.025929 -0.002117 -0.006918)
 64:   1064.68   0.006161   31.14  0.001806  (-0.026645  0.015188 -0.029416)
 65:   1070.73   0.014166   71.59  0.004129  (-0.056903 -0.029843 -0.000439)
 66:   1086.38   0.000775    3.92  0.000223  ( 0.003151  0.000198  0.014587)
 67:   1087.63   0.007177   36.27  0.002059  ( 0.033099 -0.029998  0.007981)
 68:   1124.15   0.016483   83.30  0.004576  (-0.051958  0.035379 -0.024989)
 69:   1134.10   0.004236   21.41  0.001166  ( 0.017091  0.029051  0.005430)
 70:   1162.32   0.011895   60.11  0.003194  ( 0.004909 -0.007883 -0.055744)
 71:   1169.78   0.000952    4.81  0.000254  (-0.008783 -0.004243 -0.012599)
 72:   1171.64   0.000902    4.56  0.000240  (-0.015085  0.000233  0.003538)
 73:   1173.64   0.027235  137.63  0.007242  (-0.064454 -0.017454 -0.052751)
 74:   1176.30   0.003806   19.23  0.001010  (-0.027221 -0.009363 -0.013452)
 75:   1178.48   0.009777   49.41  0.002589  (-0.033397 -0.016651 -0.034590)
 76:   1190.33   0.000192    0.97  0.000050  (-0.002683  0.000569 -0.006537)
 77:   1206.56   0.003868   19.55  0.001000  (-0.026024  0.017026 -0.005764)
 78:   1212.31   0.000664    3.35  0.000171  ( 0.012530 -0.002261 -0.002963)
 79:   1230.07   0.002919   14.75  0.000741  (-0.018775  0.019080 -0.004910)
 80:   1235.21   0.011897   60.12  0.003006  ( 0.010932 -0.041270 -0.034394)
 81:   1244.34   0.086624  437.76  0.021724  ( 0.112949  0.003761  0.094617)
 82:   1264.66   0.053909  272.44  0.013302  ( 0.062983 -0.096092  0.010096)
 83:   1298.67   0.095075  480.47  0.022846  (-0.114700  0.091640 -0.035944)
 84:   1307.37   0.052618  265.91  0.012560  ( 0.067099 -0.081136  0.038400)
 85:   1322.68   0.003514   17.76  0.000829  ( 0.006739 -0.027911  0.002184)
 86:   1342.06   0.015253   77.08  0.003547  ( 0.032495 -0.027102  0.041907)
 87:   1355.05   0.014252   72.03  0.003282  (-0.016330 -0.053256 -0.013395)
 88:   1378.57   0.020370  102.94  0.004611  (-0.039968  0.049685 -0.023346)
 89:   1385.04   0.011666   58.96  0.002629  (-0.044399 -0.008175 -0.024299)
 90:   1401.65   0.040893  206.66  0.009104  (-0.015659 -0.090475  0.025951)
 91:   1447.37   0.005995   30.30  0.001293  (-0.027836 -0.005782 -0.022008)
 92:   1464.66   0.004513   22.80  0.000961  (-0.017799 -0.020330  0.015209)
 93:   1465.67   0.007120   35.98  0.001516  (-0.027546  0.027517  0.000341)
 94:   1472.69   0.009235   46.67  0.001957  ( 0.034355 -0.025700  0.010777)
 95:   1473.21   0.021879  110.57  0.004635  ( 0.045020  0.007521  0.050510)
 96:   1479.23   0.003541   17.90  0.000747  (-0.002486 -0.025343  0.009931)
 97:   1484.00   0.002820   14.25  0.000593  (-0.010116  0.022135  0.000861)
 98:   1497.51   0.014587   73.71  0.003040  ( 0.041706 -0.031104  0.018245)
 99:   1524.15   0.106627  538.85  0.021831  ( 0.039806  0.134624  0.046079)
100:   1534.29   0.070883  358.21  0.014417  (-0.015503 -0.115852 -0.027477)
101:   1540.19   0.019640   99.25  0.003979  ( 0.012548 -0.058379  0.020339)
102:   1541.45   0.098862  499.61  0.020014  (-0.104526 -0.082185 -0.048316)
103:   1638.88   0.002617   13.22  0.000498  (-0.007204 -0.018695 -0.009840)
104:   1646.69   0.006413   32.41  0.001215  ( 0.030396 -0.015901  0.006217)
105:   1663.45   0.013338   67.41  0.002502  (-0.013066  0.047117 -0.010560)
106:   1694.55   0.012730   64.33  0.002344  ( 0.033232 -0.034785 -0.005465)
107:   1790.98   0.085858  433.89  0.014960  ( 0.026385  0.088206  0.080521)
108:   3038.39   0.012597   63.66  0.001294  ( 0.035513 -0.003499  0.004521)
109:   3078.42   0.006586   33.28  0.000668  ( 0.018555 -0.010027  0.014926)
110:   3080.25   0.000349    1.76  0.000035  ( 0.002728  0.003037  0.004326)
111:   3092.46   0.010358   52.35  0.001045  ( 0.013940  0.018251  0.022756)
112:   3110.49   0.007240   36.59  0.000726  ( 0.004116 -0.005572 -0.026045)
113:   3163.65   0.003366   17.01  0.000332  (-0.011126 -0.007039  0.012597)
114:   3167.98   0.003515   17.76  0.000346  ( 0.004002 -0.017904  0.003116)
115:   3193.54   0.000104    0.52  0.000010  (-0.001962 -0.002505 -0.000098)
116:   3195.97   0.001797    9.08  0.000175  ( 0.000802 -0.012471 -0.004390)
117:   3202.16   0.002352   11.89  0.000229  (-0.009800 -0.011464  0.001318)
118:   3216.20   0.002384   12.05  0.000231  ( 0.006829 -0.012886  0.004315)
119:   3222.31   0.000053    0.27  0.000005  (-0.001596  0.001594  0.000026)
120:   3233.53   0.000342    1.73  0.000033  ( 0.005742  0.000004 -0.000028)
121:   3240.76   0.000051    0.26  0.000005  (-0.001999 -0.000947  0.000200)
122:   3243.28   0.000687    3.47  0.000066  (-0.003556  0.006991  0.002142)
123:   3255.30   0.000730    3.69  0.000070  (-0.005886 -0.004824 -0.003479)
124:   3277.73   0.001931    9.76  0.000184  (-0.008348 -0.009646 -0.004592)
125:   3293.75   0.005192   26.24  0.000492  ( 0.020608 -0.003124  0.007584)

--------------------------
THERMOCHEMISTRY AT 298.15K
--------------------------

Temperature         ... 298.15 K
Pressure            ... 1.00 atm
Total Mass          ... 330.34 AMU

Throughout the following assumptions are being made:
  (1) The electronic state is orbitally nondegenerate
  (2) There are no thermally accessible electronically excited states
  (3) Hindered rotations indicated by low frequency modes are not
      treated as such but are treated as vibrations and this may
      cause some error
  (4) All equations used are the standard statistical mechanics
      equations for an ideal gas
  (5) All vibrations are strictly harmonic

freq.      23.73  E(vib)   ...       0.56
freq.      47.16  E(vib)   ...       0.53
freq.      50.83  E(vib)   ...       0.52
freq.      55.56  E(vib)   ...       0.52
freq.      71.06  E(vib)   ...       0.50
freq.      71.80  E(vib)   ...       0.50
freq.      91.28  E(vib)   ...       0.47
freq.      96.57  E(vib)   ...       0.47
freq.     106.32  E(vib)   ...       0.45
freq.     115.93  E(vib)   ...       0.44
freq.     124.37  E(vib)   ...       0.43
freq.     152.91  E(vib)   ...       0.40
freq.     173.98  E(vib)   ...       0.38
freq.     188.84  E(vib)   ...       0.36
freq.     211.36  E(vib)   ...       0.34
freq.     231.76  E(vib)   ...       0.32
freq.     253.96  E(vib)   ...       0.30
freq.     267.20  E(vib)   ...       0.29
freq.     278.74  E(vib)   ...       0.28
freq.     293.80  E(vib)   ...       0.27
freq.     314.17  E(vib)   ...       0.25
freq.     322.13  E(vib)   ...       0.25
freq.     340.99  E(vib)   ...       0.23
freq.     372.17  E(vib)   ...       0.21
freq.     423.91  E(vib)   ...       0.18
freq.     435.97  E(vib)   ...       0.17
freq.     484.87  E(vib)   ...       0.15
freq.     494.55  E(vib)   ...       0.14
freq.     540.99  E(vib)   ...       0.12
freq.     567.28  E(vib)   ...       0.11
freq.     589.76  E(vib)   ...       0.10
freq.     603.53  E(vib)   ...       0.10
freq.     626.85  E(vib)   ...       0.09
freq.     636.54  E(vib)   ...       0.09
freq.     654.01  E(vib)   ...       0.08
freq.     687.11  E(vib)   ...       0.07
freq.     698.49  E(vib)   ...       0.07
freq.     714.73  E(vib)   ...       0.07
freq.     724.84  E(vib)   ...       0.06
freq.     764.47  E(vib)   ...       0.06
freq.     777.78  E(vib)   ...       0.05
freq.     788.20  E(vib)   ...       0.05
freq.     794.57  E(vib)   ...       0.05
freq.     800.07  E(vib)   ...       0.05
freq.     806.68  E(vib)   ...       0.05
freq.     831.99  E(vib)   ...       0.04
freq.     872.61  E(vib)   ...       0.04
freq.     873.99  E(vib)   ...       0.04
freq.     904.53  E(vib)   ...       0.03
freq.     953.85  E(vib)   ...       0.03
freq.     967.26  E(vib)   ...       0.03
freq.     975.30  E(vib)   ...       0.03
freq.     987.35  E(vib)   ...       0.02
freq.     998.21  E(vib)   ...       0.02
freq.    1006.33  E(vib)   ...       0.02
freq.    1047.47  E(vib)   ...       0.02
freq.    1051.50  E(vib)   ...       0.02
freq.    1056.88  E(vib)   ...       0.02
freq.    1064.68  E(vib)   ...       0.02
freq.    1070.73  E(vib)   ...       0.02
freq.    1086.38  E(vib)   ...       0.02
freq.    1087.63  E(vib)   ...       0.02
freq.    1124.15  E(vib)   ...       0.01
freq.    1134.10  E(vib)   ...       0.01
freq.    1162.32  E(vib)   ...       0.01
freq.    1169.78  E(vib)   ...       0.01
freq.    1171.64  E(vib)   ...       0.01
freq.    1173.64  E(vib)   ...       0.01
freq.    1176.30  E(vib)   ...       0.01
freq.    1178.48  E(vib)   ...       0.01
freq.    1190.33  E(vib)   ...       0.01
freq.    1206.56  E(vib)   ...       0.01
freq.    1212.31  E(vib)   ...       0.01
freq.    1230.07  E(vib)   ...       0.01
freq.    1235.21  E(vib)   ...       0.01
freq.    1244.34  E(vib)   ...       0.01
freq.    1264.66  E(vib)   ...       0.01
freq.    1298.67  E(vib)   ...       0.01
freq.    1307.37  E(vib)   ...       0.01
freq.    1322.68  E(vib)   ...       0.01
freq.    1342.06  E(vib)   ...       0.01
freq.    1355.05  E(vib)   ...       0.01
freq.    1378.57  E(vib)   ...       0.01
freq.    1385.04  E(vib)   ...       0.00
freq.    1401.65  E(vib)   ...       0.00
freq.    1447.37  E(vib)   ...       0.00
freq.    1464.66  E(vib)   ...       0.00
freq.    1465.67  E(vib)   ...       0.00
freq.    1472.69  E(vib)   ...       0.00
freq.    1473.21  E(vib)   ...       0.00
freq.    1479.23  E(vib)   ...       0.00
freq.    1484.00  E(vib)   ...       0.00
freq.    1497.51  E(vib)   ...       0.00
freq.    1524.15  E(vib)   ...       0.00
freq.    1534.29  E(vib)   ...       0.00
freq.    1540.19  E(vib)   ...       0.00
freq.    1541.45  E(vib)   ...       0.00
freq.    1638.88  E(vib)   ...       0.00
freq.    1646.69  E(vib)   ...       0.00
freq.    1663.45  E(vib)   ...       0.00
freq.    1694.55  E(vib)   ...       0.00
freq.    1790.98  E(vib)   ...       0.00
freq.    3038.39  E(vib)   ...       0.00
freq.    3078.42  E(vib)   ...       0.00
freq.    3080.25  E(vib)   ...       0.00
freq.    3092.46  E(vib)   ...       0.00
freq.    3110.49  E(vib)   ...       0.00
freq.    3163.65  E(vib)   ...       0.00
freq.    3167.98  E(vib)   ...       0.00
freq.    3193.54  E(vib)   ...       0.00
freq.    3195.97  E(vib)   ...       0.00
freq.    3202.16  E(vib)   ...       0.00
freq.    3216.20  E(vib)   ...       0.00
freq.    3222.31  E(vib)   ...       0.00
freq.    3233.53  E(vib)   ...       0.00
freq.    3240.76  E(vib)   ...       0.00
freq.    3243.28  E(vib)   ...       0.00
freq.    3255.30  E(vib)   ...       0.00
freq.    3277.73  E(vib)   ...       0.00
freq.    3293.75  E(vib)   ...       0.00

------------
INNER ENERGY
------------

The inner energy is: U= E(el) + E(ZPE) + E(vib) + E(rot) + E(trans)
    E(el)   - is the total energy from the electronic structure calculation
              = E(kin-el) + E(nuc-el) + E(el-el) + E(nuc-nuc)
    E(ZPE)  - the the zero temperature vibrational energy from the frequency calculation
    E(vib)  - the the finite temperature correction to E(ZPE) due to population
              of excited vibrational states
    E(rot)  - is the rotational thermal energy
    E(trans)- is the translational thermal energy

Summary of contributions to the inner energy U:
Electronic energy                ...  -1143.34750609 Eh
Zero point energy                ...      0.33497851 Eh     210.20 kcal/mol
Thermal vibrational correction   ...      0.01894407 Eh      11.89 kcal/mol
Thermal rotational correction    ...      0.00141627 Eh       0.89 kcal/mol
Thermal translational correction ...      0.00141627 Eh       0.89 kcal/mol
-----------------------------------------------------------------------
Total thermal energy                  -1142.99075096 Eh

Rotational constants in cm-1:     0.009466     0.007707     0.006691

                             ****ORCA TERMINATED NORMALLY****
TOTAL RUN TIME: 0 days 1 hours 29 minutes 27 seconds 529 msec
