                         Program Version 5.0.4 -  RELEASE  -
|  1> %pal nprocs 24 end
|  2> ! PBE0 D3BJ def2-TZVP TightSCF OPT FREQ TightOpt
|  3> ! CPCM(dmso)
|  4> %scf
|  5> MaxIter 800
|  6> end
|  7>
|  8> %geom
|  9> MaxIter 800
| 10> MaxStep 0.15
| 11> end
| 12>
| 13> *xyz 0 1
| 14> C       1.75870700      1.86498200      3.77943300
| 15> C       2.12286600      0.51665300      3.74039700
| 16> C       2.26075700     -0.10375100      2.51583100
| 17> N       2.05484900      0.58144000      1.37340400
| 18> C       1.70330900      1.88509600      1.38098000
| 19> C       1.55433900      2.55168700      2.58790700
| 20> C       2.08228100     -0.12195200      0.09255000
| 21> C       3.05155800      0.57178000     -0.85186500
| 22> O       3.80672100      1.45376000     -0.52192200
| 23> O       3.09249900     -0.05100600     -2.01588800
| 24> C       3.94755000      0.50474300     -3.00452500
| 25> H       1.64046200      2.37495700      4.73813400
| 26> H       2.52998000     -1.15591600      2.40923500
| 27> H       1.62189200      2.35972800      0.39710400
| 28> H       1.27847000      3.60684100      2.57742600
| 29> H       2.52471700     -1.11056000      0.28262200
| 30> H       4.98716000      0.54101800     -2.64943000
| 31> H       3.61508900      1.52081300     -3.26179700
| 32> H       2.29822000     -0.05678700      4.65121200
| 33> C      -0.32601700      0.76530600     -0.36391200
| 34> C       0.61444000     -0.39866700     -0.36070800
| 35> C       0.56702200     -1.25984200     -1.61216000
| 36> C       0.06894000     -0.78834500     -2.82399600
| 37> C       0.01901400     -1.60305300     -3.95669300
| 38> C       0.47163800     -2.91701400     -3.87563200
| 39> C       0.96560500     -3.42039800     -2.67078000
| 40> C       1.01119700     -2.59629400     -1.54204800
| 41> O       1.47277000     -3.00125000     -0.33611300
| 42> C       1.93028200     -4.32430200     -0.18127900
| 43> N      -0.04502400      1.86851700     -1.05671900
| 44> O      -0.89768800      2.78078500     -1.20768200
| 45> H       0.24959000     -1.05543900      0.44687300
| 46> H      -0.27871900      0.24440400     -2.88182700
| 47> H      -0.37309700     -1.20859300     -4.89696500
| 48> H       0.43953200     -3.56821700     -4.75295500
| 49> H       1.30988400     -4.45372000     -2.61807600
| 50> H       2.24813500     -4.42315700      0.86390800
| 51> H       2.78756100     -4.53421200     -0.84207700
| 52> H       1.12974000     -5.05383300     -0.38776600
| 53> O       1.13377100      2.03976800     -1.53368700
| 54> H       3.86762500     -0.15001600     -3.87934500
| 55> C      -1.70639200      0.62945000      0.18251800
| 56> H      -2.45617700      0.42273000     -0.60517100
| 57> H      -1.75193600     -0.19455300      0.90902600
| 58> H      -2.02514800      1.55979900      0.67771800
| 59> *
| 60>
| 61>                          ****END OF INPUT****
 Total Charge           Charge          ....    0
 Multiplicity           Mult            ....    1
 Number of Electrons    NEL             ....  182
Dispersion correction           -0.057096959
FINAL SINGLE POINT ENERGY     -1182.626996360558
Dispersion correction            ... done
Dispersion correction           -0.056821199
FINAL SINGLE POINT ENERGY     -1182.628208080189
Dispersion correction            ... done
Dispersion correction           -0.057268650
FINAL SINGLE POINT ENERGY     -1182.627189085599
Dispersion correction            ... done
FINAL SINGLE POINT ENERGY     -1182.629255568424
FINAL SINGLE POINT ENERGY     -1182.629155123615
FINAL SINGLE POINT ENERGY     -1182.629357669945
FINAL SINGLE POINT ENERGY     -1182.629361436373
FINAL SINGLE POINT ENERGY     -1182.629376091338
FINAL SINGLE POINT ENERGY     -1182.629377984062
FINAL SINGLE POINT ENERGY     -1182.629381799900
FINAL SINGLE POINT ENERGY     -1182.629387889716
FINAL SINGLE POINT ENERGY     -1182.629390573295
FINAL SINGLE POINT ENERGY     -1182.629395632046
FINAL SINGLE POINT ENERGY     -1182.629404890946
FINAL SINGLE POINT ENERGY     -1182.629420503797
FINAL SINGLE POINT ENERGY     -1182.629425702352
FINAL SINGLE POINT ENERGY     -1182.629432571637
Dispersion correction           -0.057060834
FINAL SINGLE POINT ENERGY     -1182.629434449903
Dispersion correction            ... done
Dispersion correction           -0.057062528
FINAL SINGLE POINT ENERGY     -1182.629433524263
Dispersion correction            ... done
                    ***********************HURRAY********************

CARTESIAN COORDINATES (ANGSTROEM)
---------------------------------
  C      1.749103    1.863490    3.760730
  C      2.094260    0.519064    3.710824
  C      2.225364   -0.090597    2.487968
  N      2.029918    0.602784    1.354550
  C      1.697594    1.904733    1.376276
  C      1.554409    2.559474    2.580256
  C      2.066462   -0.097662    0.070746
  C      3.045339    0.589812   -0.865997
  O      3.792711    1.476215   -0.533399
  O      3.102369   -0.044950   -2.021014
  C      4.026616    0.474932   -2.978488
  H      1.637112    2.362604    4.715554
  H      2.481102   -1.135618    2.374447
  H      1.606103    2.385946    0.409918
  H      1.292490    3.608786    2.577537
  H      2.512965   -1.074435    0.267083
  H      5.045574    0.418077   -2.595129
  H      3.779164    1.510187   -3.214208
  H      2.260771   -0.059530    4.609001
  C     -0.347315    0.761509   -0.394679
  C      0.604363   -0.390711   -0.381188
  C      0.556507   -1.265717   -1.619013
  C      0.042539   -0.813821   -2.822932
  C     -0.007168   -1.631480   -3.944730
  C      0.457967   -2.932872   -3.858551
  C      0.961767   -3.420044   -2.659225
  C      1.007566   -2.591951   -1.543102
  O      1.477483   -2.990488   -0.336404
  C      1.960481   -4.313957   -0.206207
  N     -0.080374    1.868323   -1.058900
  O     -0.937335    2.805255   -1.147212
  H      0.248381   -1.031597    0.433157
  H     -0.315321    0.206236   -2.884243
  H     -0.408558   -1.250458   -4.876330
  H      0.427599   -3.585319   -4.723983
  H      1.312378   -4.441737   -2.601451
  H      2.290025   -4.413329    0.826015
  H      2.804406   -4.492848   -0.878305
  H      1.171922   -5.043687   -0.410349
  O      1.076907    2.044464   -1.593308
  H      3.917053   -0.151116   -3.860152
  C     -1.696182    0.624897    0.220705
  H     -2.491706    0.624652   -0.533434
  H     -1.762247   -0.308432    0.781253
  H     -1.912591    1.454296    0.901176

 Multiplicity           Mult            ....    1
 Number of Electrons    NEL             ....  182
 Basis Dimension        Dim             ....  895

ORBITAL ENERGIES
----------------

  NO   OCC          E(Eh)            E(eV)
   0   2.0000     -19.260047      -524.0925
   1   2.0000     -19.246214      -523.7161
   2   2.0000     -19.199990      -522.4583
   3   2.0000     -19.165804      -521.5280
   4   2.0000     -19.161462      -521.4099
   5   2.0000     -14.539857      -395.6496
   6   2.0000     -14.507437      -394.7674
   7   2.0000     -10.364982      -282.0455
   8   2.0000     -10.309804      -280.5440
   9   2.0000     -10.303989      -280.3858
  10   2.0000     -10.300980      -280.3039
  11   2.0000     -10.287225      -279.9296
  12   2.0000     -10.275524      -279.6112
  13   2.0000     -10.269323      -279.4425
  14   2.0000     -10.266994      -279.3791
  15   2.0000     -10.264220      -279.3036
  16   2.0000     -10.262801      -279.2650
  17   2.0000     -10.259113      -279.1647
  18   2.0000     -10.238129      -278.5937
  19   2.0000     -10.236642      -278.5532
  20   2.0000     -10.226205      -278.2692
  21   2.0000     -10.223366      -278.1919
  22   2.0000     -10.223339      -278.1912
  23   2.0000     -10.218012      -278.0462
  24   2.0000     -10.209372      -277.8111
  25   2.0000      -1.171712       -31.8839
  26   2.0000      -1.153883       -31.3988
  27   2.0000      -1.107722       -30.1427
  28   2.0000      -1.080022       -29.3889
  29   2.0000      -1.057052       -28.7638
  30   2.0000      -0.989343       -26.9214
  31   2.0000      -0.902821       -24.5670
  32   2.0000      -0.886784       -24.1306
  33   2.0000      -0.858082       -23.3496
  34   2.0000      -0.840496       -22.8711
  35   2.0000      -0.818657       -22.2768
  36   2.0000      -0.788756       -21.4631
  37   2.0000      -0.774044       -21.0628
  38   2.0000      -0.752258       -20.4700
  39   2.0000      -0.725078       -19.7304
  40   2.0000      -0.717396       -19.5214
  41   2.0000      -0.711245       -19.3540
  42   2.0000      -0.703664       -19.1477
  43   2.0000      -0.676062       -18.3966
  44   2.0000      -0.625823       -17.0295
  45   2.0000      -0.615813       -16.7571
  46   2.0000      -0.607772       -16.5383
  47   2.0000      -0.578213       -15.7340
  48   2.0000      -0.564474       -15.3601
  49   2.0000      -0.555946       -15.1281
  50   2.0000      -0.548714       -14.9313
  51   2.0000      -0.536770       -14.6063
  52   2.0000      -0.536020       -14.5858
  53   2.0000      -0.514666       -14.0048
  54   2.0000      -0.514278       -13.9942
  55   2.0000      -0.508051       -13.8248
  56   2.0000      -0.502850       -13.6833
  57   2.0000      -0.497007       -13.5243
  58   2.0000      -0.493224       -13.4213
  59   2.0000      -0.488128       -13.2826
  60   2.0000      -0.485502       -13.2112
  61   2.0000      -0.479307       -13.0426
  62   2.0000      -0.474779       -12.9194
  63   2.0000      -0.460890       -12.5415
  64   2.0000      -0.450384       -12.2556
  65   2.0000      -0.442514       -12.0414
  66   2.0000      -0.436799       -11.8859
  67   2.0000      -0.427042       -11.6204
  68   2.0000      -0.416802       -11.3418
  69   2.0000      -0.414816       -11.2877
  70   2.0000      -0.409672       -11.1478
  71   2.0000      -0.405351       -11.0302
  72   2.0000      -0.402530       -10.9534
  73   2.0000      -0.400670       -10.9028
  74   2.0000      -0.393055       -10.6956
  75   2.0000      -0.380820       -10.3626
  76   2.0000      -0.373393       -10.1605
  77   2.0000      -0.372348       -10.1321
  78   2.0000      -0.363236        -9.8842
  79   2.0000      -0.345383        -9.3983
  80   2.0000      -0.339955        -9.2506
  81   2.0000      -0.338070        -9.1994
  82   2.0000      -0.328771        -8.9463
  83   2.0000      -0.319005        -8.6806
  84   2.0000      -0.304803        -8.2941
  85   2.0000      -0.287232        -7.8160
  86   2.0000      -0.275404        -7.4941
  87   2.0000      -0.265043        -7.2122
  88   2.0000      -0.249048        -6.7769
  89   2.0000      -0.238048        -6.4776
  90   2.0000      -0.202170        -5.5013
  91   0.0000      -0.081439        -2.2161
  92   0.0000      -0.043857        -1.1934
  93   0.0000      -0.012579        -0.3423
  94   0.0000       0.003092         0.0841
  95   0.0000       0.011986         0.3261

MULLIKEN ATOMIC CHARGES
-----------------------
   0 C :   -0.088226
   1 C :   -0.133944
   2 C :   -0.041647
   3 N :    0.203412
   4 C :    0.002951
   5 C :   -0.155388
   6 C :   -0.179993
   7 C :    0.324451
   8 O :   -0.391286
   9 O :   -0.207099
  10 C :   -0.272277
  11 H :    0.186985
  12 H :    0.205699
  13 H :    0.172856
  14 H :    0.188131
  15 H :    0.187120
  16 H :    0.153748
  17 H :    0.152689
  18 H :    0.190873
  19 C :   -0.158195
  20 C :    0.254551
  21 C :   -0.011856
  22 C :   -0.213173
  23 C :   -0.213932
  24 C :   -0.147974
  25 C :   -0.312191
  26 C :    0.283056
  27 O :   -0.267870
  28 C :   -0.289862
  29 N :    0.461006
  30 O :   -0.588401
  31 H :    0.095620
  32 H :    0.150232
  33 H :    0.143808
  34 H :    0.149623
  35 H :    0.161805
  36 H :    0.162725
  37 H :    0.151716
  38 H :    0.153225
  39 O :   -0.576461
  40 H :    0.161063
  41 C :   -0.452571
  42 H :    0.133614
  43 H :    0.138898
  44 H :    0.132491
Sum of atomic charges:   -0.0000000

LOEWDIN ATOMIC CHARGES
----------------------
   0 C :   -0.058771
   1 C :   -0.103884
   2 C :   -0.078957
   3 N :    0.341477
   4 C :   -0.080902
   5 C :   -0.103599
   6 C :   -0.150321
   7 C :   -0.498389
   8 O :    0.083597
   9 O :    0.289818
  10 C :   -0.303921
  11 H :    0.171091
  12 H :    0.175928
  13 H :    0.170755
  14 H :    0.172455
  15 H :    0.190212
  16 H :    0.119062
  17 H :    0.119272
  18 H :    0.172827
  19 C :   -0.284727
  20 C :   -0.161562
  21 C :   -0.098685
  22 C :   -0.110414
  23 C :   -0.169495
  24 C :   -0.151948
  25 C :   -0.146132
  26 C :   -0.232438
  27 O :    0.245246
  28 C :   -0.326485
  29 N :   -0.065993
  30 O :   -0.277143
  31 H :    0.193235
  32 H :    0.161140
  33 H :    0.150729
  34 H :    0.153056
  35 H :    0.159219
  36 H :    0.121670
  37 H :    0.117443
  38 H :    0.117964
  39 O :   -0.243069
  40 H :    0.122458
  41 C :   -0.294308
  42 H :    0.129304
  43 H :    0.133765
  44 H :    0.129420

  Mayer bond orders larger than 0.100000
B(  0-C ,  1-C ) :   1.3921 B(  0-C ,  5-C ) :   1.4290 B(  0-C , 11-H ) :   0.9426
B(  1-C ,  2-C ) :   1.4619 B(  1-C , 18-H ) :   0.9444 B(  2-C ,  3-N ) :   1.2799
B(  2-C , 12-H ) :   0.9307 B(  3-N ,  4-C ) :   1.2683 B(  3-N ,  6-C ) :   0.8735
B(  4-C ,  5-C ) :   1.4446 B(  4-C , 13-H ) :   0.8917 B(  5-C , 14-H ) :   0.9459
B(  6-C ,  7-C ) :   1.0135 B(  6-C , 15-H ) :   0.9031 B(  6-C , 20-C ) :   0.8359
B(  6-C , 39-O ) :   0.1025 B(  7-C ,  8-O ) :   1.9818 B(  7-C ,  9-O ) :   1.2547
B(  9-O , 10-C ) :   0.8944 B( 10-C , 16-H ) :   0.9658 B( 10-C , 17-H ) :   0.9680
B( 10-C , 40-H ) :   0.9648 B( 13-H , 39-O ) :   0.1106 B( 19-C , 20-C ) :   0.9906
B( 19-C , 29-N ) :   1.5184 B( 19-C , 30-O ) :   0.1424 B( 19-C , 41-C ) :   0.9845
B( 20-C , 21-C ) :   0.9792 B( 20-C , 31-H ) :   0.9268 B( 21-C , 22-C ) :   1.3798
B( 21-C , 26-C ) :   1.3044 B( 22-C , 23-C ) :   1.4006 B( 22-C , 32-H ) :   0.9776
B( 23-C , 24-C ) :   1.4012 B( 23-C , 33-H ) :   0.9857 B( 24-C , 25-C ) :   1.3924
B( 24-C , 34-H ) :   0.9686 B( 25-C , 26-C ) :   1.3696 B( 25-C , 35-H ) :   0.9627
B( 26-C , 27-O ) :   1.0949 B( 27-O , 28-C ) :   0.9379 B( 28-C , 36-H ) :   0.9654
B( 28-C , 37-H ) :   0.9626 B( 28-C , 38-H ) :   0.9611 B( 29-N , 30-O ) :   1.3009
B( 29-N , 39-O ) :   1.1968 B( 41-C , 42-H ) :   0.9690 B( 41-C , 43-H ) :   0.9720
B( 41-C , 44-H ) :   0.9677

Dispersion correction           -0.057062172
FINAL SINGLE POINT ENERGY     -1182.629433459269

DIPOLE MOMENT
-------------
                                X             Y             Z
Electronic contribution:      2.97012       7.53636       3.32444
Nuclear contribution   :     -0.40784     -12.02002       1.60195
                        -----------------------------------------
Total Dipole Moment    :      2.56227      -4.48366       4.92639
                        -----------------------------------------
Magnitude (a.u.)       :      7.13707
Magnitude (Debye)      :     18.14098

Dispersion correction in the Hessian             ... done   (      0.6 sec)

VIBRATIONAL FREQUENCIES
-----------------------

Scaling factor for frequencies =  1.000000000  (already applied!)

   0:         0.00 cm**-1
   1:         0.00 cm**-1
   2:         0.00 cm**-1
   3:         0.00 cm**-1
   4:         0.00 cm**-1
   5:         0.00 cm**-1
   6:        25.29 cm**-1
   7:        43.15 cm**-1
   8:        45.42 cm**-1
   9:        57.77 cm**-1
  10:        66.70 cm**-1
  11:        71.51 cm**-1
  12:        86.32 cm**-1
  13:        89.64 cm**-1
  14:        98.92 cm**-1
  15:       105.14 cm**-1
  16:       132.24 cm**-1
  17:       137.86 cm**-1
  18:       145.40 cm**-1
  19:       164.69 cm**-1
  20:       178.93 cm**-1
  21:       193.43 cm**-1
  22:       198.15 cm**-1
  23:       226.68 cm**-1
  24:       254.60 cm**-1
  25:       255.73 cm**-1
  26:       278.52 cm**-1
  27:       294.68 cm**-1
  28:       308.48 cm**-1
  29:       314.84 cm**-1
  30:       339.46 cm**-1
  31:       370.70 cm**-1
  32:       390.25 cm**-1
  33:       425.74 cm**-1
  34:       465.75 cm**-1
  35:       478.56 cm**-1
  36:       503.47 cm**-1
  37:       547.73 cm**-1
  38:       574.00 cm**-1
  39:       584.77 cm**-1
  40:       599.78 cm**-1
  41:       612.11 cm**-1
  42:       652.70 cm**-1
  43:       659.63 cm**-1
  44:       672.61 cm**-1
  45:       693.63 cm**-1
  46:       713.57 cm**-1
  47:       755.43 cm**-1
  48:       768.34 cm**-1
  49:       770.38 cm**-1
  50:       781.26 cm**-1
  51:       802.78 cm**-1
  52:       808.21 cm**-1
  53:       834.11 cm**-1
  54:       857.30 cm**-1
  55:       872.95 cm**-1
  56:       890.22 cm**-1
  57:       923.62 cm**-1
  58:       924.74 cm**-1
  59:       958.92 cm**-1
  60:       980.48 cm**-1
  61:       986.40 cm**-1
  62:       994.28 cm**-1
  63:      1034.65 cm**-1
  64:      1037.64 cm**-1
  65:      1045.46 cm**-1
  66:      1048.50 cm**-1
  67:      1062.44 cm**-1
  68:      1071.38 cm**-1
  69:      1083.53 cm**-1
  70:      1084.67 cm**-1
  71:      1090.44 cm**-1
  72:      1126.20 cm**-1
  73:      1136.57 cm**-1
  74:      1169.21 cm**-1
  75:      1171.12 cm**-1
  76:      1172.41 cm**-1
  77:      1174.79 cm**-1
  78:      1178.45 cm**-1
  79:      1198.26 cm**-1
  80:      1208.73 cm**-1
  81:      1212.36 cm**-1
  82:      1228.07 cm**-1
  83:      1229.05 cm**-1
  84:      1261.04 cm**-1
  85:      1269.63 cm**-1
  86:      1277.81 cm**-1
  87:      1289.94 cm**-1
  88:      1295.38 cm**-1
  89:      1314.99 cm**-1
  90:      1324.51 cm**-1
  91:      1354.26 cm**-1
  92:      1376.99 cm**-1
  93:      1385.02 cm**-1
  94:      1398.45 cm**-1
  95:      1416.83 cm**-1
  96:      1421.92 cm**-1
  97:      1442.58 cm**-1
  98:      1463.54 cm**-1
  99:      1464.80 cm**-1
 100:      1467.48 cm**-1
 101:      1470.29 cm**-1
 102:      1473.76 cm**-1
 103:      1474.45 cm**-1
 104:      1485.06 cm**-1
 105:      1497.31 cm**-1
 106:      1526.97 cm**-1
 107:      1531.97 cm**-1
 108:      1533.54 cm**-1
 109:      1584.12 cm**-1
 110:      1642.24 cm**-1
 111:      1647.41 cm**-1
 112:      1663.17 cm**-1
 113:      1696.01 cm**-1
 114:      1780.28 cm**-1
 115:      3022.69 cm**-1
 116:      3037.62 cm**-1
 117:      3049.53 cm**-1
 118:      3071.17 cm**-1
 119:      3072.08 cm**-1
 120:      3107.10 cm**-1
 121:      3109.25 cm**-1
 122:      3132.99 cm**-1
 123:      3154.49 cm**-1
 124:      3165.23 cm**-1
 125:      3187.61 cm**-1
 126:      3191.60 cm**-1
 127:      3193.60 cm**-1
 128:      3206.39 cm**-1
 129:      3220.47 cm**-1
 130:      3221.47 cm**-1
 131:      3229.76 cm**-1
 132:      3235.44 cm**-1
 133:      3242.40 cm**-1
 134:      3247.60 cm**-1

IR SPECTRUM
-----------

 Mode   freq       eps      Int      T**2         TX        TY        TZ
       cm**-1   L/(mol*cm) km/mol    a.u.
----------------------------------------------------------------------------
  6:     25.29   0.000115    0.58  0.001425  ( 0.008199 -0.036838  0.000649)
  7:     43.15   0.000839    4.24  0.006067  (-0.067421 -0.033855  0.019364)
  8:     45.42   0.000617    3.12  0.004238  (-0.061913 -0.006548 -0.019026)
  9:     57.77   0.000273    1.38  0.001476  (-0.017287 -0.010258 -0.032737)
 10:     66.70   0.001325    6.70  0.006201  (-0.044271  0.012236 -0.063963)
 11:     71.51   0.002387   12.06  0.010416  ( 0.064688 -0.074142 -0.027093)
 12:     86.32   0.001226    6.20  0.004433  (-0.005025 -0.042495 -0.051009)
 13:     89.64   0.001631    8.24  0.005678  ( 0.062110 -0.007997  0.041916)
 14:     98.92   0.001986   10.03  0.006263  ( 0.061738  0.024020 -0.043300)
 15:    105.14   0.000473    2.39  0.001403  (-0.019269 -0.015900 -0.027901)
 16:    132.24   0.001630    8.24  0.003847  (-0.038942 -0.028940 -0.038635)
 17:    137.86   0.001450    7.33  0.003282  ( 0.015857 -0.011978  0.053735)
 18:    145.40   0.000557    2.82  0.001196  ( 0.010265 -0.010587 -0.031285)
 19:    164.69   0.000270    1.36  0.000512  ( 0.012961 -0.000851  0.018521)
 20:    178.93   0.003123   15.78  0.005446  (-0.057897  0.042398  0.017223)
 21:    193.43   0.000697    3.52  0.001124  ( 0.004945  0.011985  0.030923)
 22:    198.15   0.001729    8.74  0.002723  ( 0.020285  0.024591  0.041313)
 23:    226.68   0.002493   12.60  0.003432  ( 0.040898 -0.041658  0.004861)
 24:    254.60   0.001880    9.50  0.002305  (-0.013461 -0.016997 -0.042832)
 25:    255.73   0.000765    3.86  0.000933  (-0.024660  0.005476 -0.017170)
 26:    278.52   0.005112   25.83  0.005727  (-0.021428 -0.009679 -0.071934)
 27:    294.68   0.000585    2.96  0.000620  (-0.020579  0.009130  0.010636)
 28:    308.48   0.000088    0.45  0.000089  ( 0.005622  0.006196  0.004386)
 29:    314.84   0.000209    1.05  0.000207  (-0.003056  0.013957  0.001638)
 30:    339.46   0.002543   12.85  0.002338  ( 0.013984  0.023699 -0.039753)
 31:    370.70   0.003322   16.79  0.002797  (-0.030615  0.013573  0.040927)
 32:    390.25   0.002048   10.35  0.001638  ( 0.003386  0.010451 -0.038950)
 33:    425.74   0.000832    4.20  0.000610  ( 0.005814 -0.001896  0.023920)
 34:    465.75   0.000312    1.57  0.000209  ( 0.013202 -0.005035  0.003013)
 35:    478.56   0.000124    0.63  0.000081  ( 0.003863 -0.003813  0.007191)
 36:    503.47   0.001046    5.28  0.000648  (-0.003850  0.013033  0.021527)
 37:    547.73   0.006737   34.04  0.003838  ( 0.061532 -0.000766 -0.007176)
 38:    574.00   0.004840   24.46  0.002631  (-0.037874  0.030977  0.015408)
 39:    584.77   0.005732   28.97  0.003059  (-0.038959  0.010650 -0.037782)
 40:    599.78   0.001106    5.59  0.000575  (-0.001945 -0.017115  0.016693)
 41:    612.11   0.003559   17.99  0.001814  ( 0.000725  0.042062  0.006683)
 42:    652.70   0.000368    1.86  0.000176  ( 0.012742  0.003142  0.001871)
 43:    659.63   0.001741    8.80  0.000824  ( 0.019732 -0.004479  0.020356)
 44:    672.61   0.000780    3.94  0.000362  ( 0.008327 -0.010574  0.013442)
 45:    693.63   0.004078   20.61  0.001835  ( 0.018177  0.038653 -0.003174)
 46:    713.57   0.031881  161.11  0.013943  (-0.111821 -0.027082 -0.026554)
 47:    755.43   0.001055    5.33  0.000436  ( 0.016165  0.012712 -0.003624)
 48:    768.34   0.018664   94.32  0.007581  (-0.083212 -0.022920  0.011442)
 49:    770.38   0.007125   36.01  0.002886  (-0.024089 -0.013215  0.046167)
 50:    781.26   0.001035    5.23  0.000413  ( 0.008235  0.018564  0.000976)
 51:    802.78   0.006169   31.18  0.002398  (-0.039395 -0.007028  0.028225)
 52:    808.21   0.001518    7.67  0.000586  (-0.013113 -0.000440 -0.020350)
 53:    834.11   0.008522   43.06  0.003188  (-0.051234  0.006450  0.022839)
 54:    857.30   0.004206   21.26  0.001531  ( 0.022651  0.010555  0.030112)
 55:    872.95   0.000076    0.38  0.000027  (-0.001173 -0.004986  0.000875)
 56:    890.22   0.000389    1.97  0.000136  (-0.008326 -0.007880  0.002217)
 57:    923.62   0.007261   36.70  0.002453  ( 0.010061 -0.044045  0.020304)
 58:    924.74   0.011006   55.62  0.003714  ( 0.009138 -0.059789  0.007481)
 59:    958.92   0.000499    2.52  0.000163  (-0.012180  0.003590 -0.001148)
 60:    980.48   0.007386   37.33  0.002351  (-0.039747 -0.013483  0.024273)
 61:    986.40   0.000288    1.46  0.000091  ( 0.009075 -0.002847 -0.000794)
 62:    994.28   0.000217    1.10  0.000068  ( 0.007691 -0.000327  0.002960)
 63:   1034.65   0.002670   13.49  0.000805  (-0.010596  0.014260 -0.022129)
 64:   1037.64   0.007341   37.10  0.002208  (-0.035117 -0.010787  0.029296)
 65:   1045.46   0.004541   22.95  0.001356  ( 0.032051 -0.006708 -0.016830)
 66:   1048.50   0.001454    7.35  0.000433  ( 0.001145 -0.003250  0.020514)
 67:   1062.44   0.002565   12.96  0.000753  ( 0.026218  0.007298 -0.003576)
 68:   1071.38   0.012425   62.79  0.003619  (-0.020338  0.054781  0.014299)
 69:   1083.53   0.006880   34.77  0.001981  ( 0.002833 -0.028459  0.034109)
 70:   1084.67   0.004035   20.39  0.001161  (-0.013721  0.009409 -0.029732)
 71:   1090.44   0.008519   43.05  0.002438  ( 0.002682  0.044307 -0.021622)
 72:   1126.20   0.005182   26.19  0.001436  (-0.010966 -0.036238 -0.001573)
 73:   1136.57   0.003205   16.20  0.000880  (-0.016492  0.024547 -0.002355)
 74:   1169.21   0.000580    2.93  0.000155  (-0.010686 -0.002948  0.005649)
 75:   1171.12   0.000142    0.72  0.000038  ( 0.005334  0.000328 -0.003039)
 76:   1172.41   0.002535   12.81  0.000675  (-0.003560  0.025577 -0.002813)
 77:   1174.79   0.001913    9.67  0.000508  (-0.012415  0.013067 -0.013539)
 78:   1178.45   0.035292  178.35  0.009346  (-0.031219 -0.070710  0.058061)
 79:   1198.26   0.010484   52.98  0.002730  (-0.016147 -0.047488  0.014650)
 80:   1208.73   0.002426   12.26  0.000626  (-0.007897 -0.005491  0.023103)
 81:   1212.36   0.001599    8.08  0.000412  (-0.017551  0.005192 -0.008753)
 82:   1228.07   0.010152   51.30  0.002580  ( 0.011276 -0.000721  0.049518)
 83:   1229.05   0.003557   17.98  0.000903  (-0.020511  0.017887  0.012749)
 84:   1261.04   0.023178  117.13  0.005736  ( 0.028789 -0.044328 -0.054240)
 85:   1269.63   0.062394  315.31  0.015336  (-0.066873  0.050796  0.091014)
 86:   1277.81   0.077589  392.10  0.018948  (-0.003569  0.065134 -0.121216)
 87:   1289.94   0.014380   72.67  0.003479  ( 0.051757 -0.024238  0.014578)
 88:   1295.38   0.065743  332.24  0.015838  (-0.097168  0.071122 -0.036576)
 89:   1314.99   0.017111   86.47  0.004061  (-0.035510  0.013971  0.051034)
 90:   1324.51   0.043525  219.96  0.010255  ( 0.096849 -0.029472 -0.002550)
 91:   1354.26   0.026539  134.11  0.006115  (-0.056132  0.041561  0.035174)
 92:   1376.99   0.000142    0.72  0.000032  ( 0.003860  0.004147 -0.000394)
 93:   1385.02   0.007971   40.28  0.001796  (-0.011892  0.032967 -0.023827)
 94:   1398.45   0.000995    5.03  0.000222  (-0.009046 -0.011447 -0.003037)
 95:   1416.83   0.005788   29.25  0.001275  ( 0.008922 -0.002016 -0.034512)
 96:   1421.92   0.020740  104.81  0.004552  (-0.005615  0.035378 -0.057171)
 97:   1442.58   0.002805   14.18  0.000607  (-0.008319 -0.005389 -0.022552)
 98:   1463.54   0.007977   40.31  0.001701  (-0.006996  0.018884 -0.035990)
 99:   1464.80   0.002901   14.66  0.000618  ( 0.019103 -0.014774  0.005905)
100:   1467.48   0.002266   11.45  0.000482  (-0.014515  0.012972 -0.010144)
101:   1470.29   0.016728   84.54  0.003550  ( 0.027631  0.012588 -0.051269)
102:   1473.76   0.003016   15.24  0.000639  ( 0.023387  0.007715 -0.005676)
103:   1474.45   0.002877   14.54  0.000609  ( 0.006041  0.019661  0.013632)
104:   1485.06   0.005115   25.85  0.001075  ( 0.009795 -0.009714  0.029740)
105:   1497.31   0.015292   77.28  0.003187  ( 0.021146 -0.035114  0.038819)
106:   1526.97   0.019157   96.81  0.003915  (-0.019246  0.050332 -0.031803)
107:   1531.97   0.032245  162.95  0.006568  ( 0.028287 -0.052818  0.054576)
108:   1533.54   0.016605   83.91  0.003379  ( 0.015192  0.000936  0.056101)
109:   1584.12   0.120830  610.63  0.023803  ( 0.000404 -0.125604  0.089590)
110:   1642.24   0.002161   10.92  0.000411  ( 0.010658 -0.004672  0.016590)
111:   1647.41   0.002557   12.92  0.000484  (-0.010733  0.019212  0.000164)
112:   1663.17   0.010586   53.50  0.001986  ( 0.017398 -0.020231  0.035697)
113:   1696.01   0.019293   97.50  0.003550  ( 0.004099 -0.026110 -0.053397)
114:   1780.28   0.111455  563.25  0.019537  (-0.078283 -0.092886 -0.069143)
115:   3022.69   0.011843   59.85  0.001223  ( 0.033972  0.006917 -0.004554)
116:   3037.62   0.012893   65.16  0.001325  ( 0.011739 -0.033988  0.005619)
117:   3049.53   0.002099   10.61  0.000215  ( 0.006218  0.004963 -0.012310)
118:   3071.17   0.006749   34.11  0.000686  (-0.017514 -0.006802  0.018241)
119:   3072.08   0.006760   34.16  0.000687  (-0.005318 -0.009986 -0.023636)
120:   3107.10   0.003420   17.28  0.000343  ( 0.010078  0.015465 -0.001650)
121:   3109.25   0.006914   34.94  0.000694  (-0.024395 -0.007045  0.007012)
122:   3132.99   0.004790   24.21  0.000477  ( 0.003444 -0.020152  0.007693)
123:   3154.49   0.003934   19.88  0.000389  ( 0.014308 -0.011872  0.006594)
124:   3165.23   0.003879   19.60  0.000382  ( 0.005314 -0.001135  0.018785)
125:   3187.61   0.002329   11.77  0.000228  ( 0.002772  0.009984  0.010985)
126:   3191.60   0.000519    2.62  0.000051  ( 0.001252 -0.006187 -0.003295)
127:   3193.60   0.017548   88.68  0.001715  (-0.011705 -0.000915 -0.039710)
128:   3206.39   0.002549   12.88  0.000248  (-0.002824 -0.003734 -0.015040)
129:   3220.47   0.000064    0.32  0.000006  (-0.001119  0.002218  0.000224)
130:   3221.47   0.002712   13.70  0.000263  ( 0.007355 -0.006829  0.012726)
131:   3229.76   0.000688    3.48  0.000066  (-0.001217  0.007695  0.002402)
132:   3235.44   0.001157    5.85  0.000112  (-0.000830  0.009209  0.005108)
133:   3242.40   0.000692    3.50  0.000067  (-0.002928  0.007051 -0.002887)
134:   3247.60   0.000796    4.02  0.000077  ( 0.001435 -0.007262  0.004660)

--------------------------
THERMOCHEMISTRY AT 298.15K
--------------------------

Temperature         ... 298.15 K
Pressure            ... 1.00 atm
Total Mass          ... 344.37 AMU

Throughout the following assumptions are being made:
  (1) The electronic state is orbitally nondegenerate
  (2) There are no thermally accessible electronically excited states
  (3) Hindered rotations indicated by low frequency modes are not
      treated as such but are treated as vibrations and this may
      cause some error
  (4) All equations used are the standard statistical mechanics
      equations for an ideal gas
  (5) All vibrations are strictly harmonic

freq.      25.29  E(vib)   ...       0.56
freq.      43.15  E(vib)   ...       0.53
freq.      45.42  E(vib)   ...       0.53
freq.      57.77  E(vib)   ...       0.51
freq.      66.70  E(vib)   ...       0.50
freq.      71.51  E(vib)   ...       0.50
freq.      86.32  E(vib)   ...       0.48
freq.      89.64  E(vib)   ...       0.47
freq.      98.92  E(vib)   ...       0.46
freq.     105.14  E(vib)   ...       0.45
freq.     132.24  E(vib)   ...       0.42
freq.     137.86  E(vib)   ...       0.42
freq.     145.40  E(vib)   ...       0.41
freq.     164.69  E(vib)   ...       0.39
freq.     178.93  E(vib)   ...       0.37
freq.     193.43  E(vib)   ...       0.36
freq.     198.15  E(vib)   ...       0.35
freq.     226.68  E(vib)   ...       0.33
freq.     254.60  E(vib)   ...       0.30
freq.     255.73  E(vib)   ...       0.30
freq.     278.52  E(vib)   ...       0.28
freq.     294.68  E(vib)   ...       0.27
freq.     308.48  E(vib)   ...       0.26
freq.     314.84  E(vib)   ...       0.25
freq.     339.46  E(vib)   ...       0.23
freq.     370.70  E(vib)   ...       0.21
freq.     390.25  E(vib)   ...       0.20
freq.     425.74  E(vib)   ...       0.18
freq.     465.75  E(vib)   ...       0.16
freq.     478.56  E(vib)   ...       0.15
freq.     503.47  E(vib)   ...       0.14
freq.     547.73  E(vib)   ...       0.12
freq.     574.00  E(vib)   ...       0.11
freq.     584.77  E(vib)   ...       0.11
freq.     599.78  E(vib)   ...       0.10
freq.     612.11  E(vib)   ...       0.10
freq.     652.70  E(vib)   ...       0.08
freq.     659.63  E(vib)   ...       0.08
freq.     672.61  E(vib)   ...       0.08
freq.     693.63  E(vib)   ...       0.07
freq.     713.57  E(vib)   ...       0.07
freq.     755.43  E(vib)   ...       0.06
freq.     768.34  E(vib)   ...       0.06
freq.     770.38  E(vib)   ...       0.05
freq.     781.26  E(vib)   ...       0.05
freq.     802.78  E(vib)   ...       0.05
freq.     808.21  E(vib)   ...       0.05
freq.     834.11  E(vib)   ...       0.04
freq.     857.30  E(vib)   ...       0.04
freq.     872.95  E(vib)   ...       0.04
freq.     890.22  E(vib)   ...       0.04
freq.     923.62  E(vib)   ...       0.03
freq.     924.74  E(vib)   ...       0.03
freq.     958.92  E(vib)   ...       0.03
freq.     980.48  E(vib)   ...       0.02
freq.     986.40  E(vib)   ...       0.02
freq.     994.28  E(vib)   ...       0.02
freq.    1034.65  E(vib)   ...       0.02
freq.    1037.64  E(vib)   ...       0.02
freq.    1045.46  E(vib)   ...       0.02
freq.    1048.50  E(vib)   ...       0.02
freq.    1062.44  E(vib)   ...       0.02
freq.    1071.38  E(vib)   ...       0.02
freq.    1083.53  E(vib)   ...       0.02
freq.    1084.67  E(vib)   ...       0.02
freq.    1090.44  E(vib)   ...       0.02
freq.    1126.20  E(vib)   ...       0.01
freq.    1136.57  E(vib)   ...       0.01
freq.    1169.21  E(vib)   ...       0.01
freq.    1171.12  E(vib)   ...       0.01
freq.    1172.41  E(vib)   ...       0.01
freq.    1174.79  E(vib)   ...       0.01
freq.    1178.45  E(vib)   ...       0.01
freq.    1198.26  E(vib)   ...       0.01
freq.    1208.73  E(vib)   ...       0.01
freq.    1212.36  E(vib)   ...       0.01
freq.    1228.07  E(vib)   ...       0.01
freq.    1229.05  E(vib)   ...       0.01
freq.    1261.04  E(vib)   ...       0.01
freq.    1269.63  E(vib)   ...       0.01
freq.    1277.81  E(vib)   ...       0.01
freq.    1289.94  E(vib)   ...       0.01
freq.    1295.38  E(vib)   ...       0.01
freq.    1314.99  E(vib)   ...       0.01
freq.    1324.51  E(vib)   ...       0.01
freq.    1354.26  E(vib)   ...       0.01
freq.    1376.99  E(vib)   ...       0.01
freq.    1385.02  E(vib)   ...       0.00
freq.    1398.45  E(vib)   ...       0.00
freq.    1416.83  E(vib)   ...       0.00
freq.    1421.92  E(vib)   ...       0.00
freq.    1442.58  E(vib)   ...       0.00
freq.    1463.54  E(vib)   ...       0.00
freq.    1464.80  E(vib)   ...       0.00
freq.    1467.48  E(vib)   ...       0.00
freq.    1470.29  E(vib)   ...       0.00
freq.    1473.76  E(vib)   ...       0.00
freq.    1474.45  E(vib)   ...       0.00
freq.    1485.06  E(vib)   ...       0.00
freq.    1497.31  E(vib)   ...       0.00
freq.    1526.97  E(vib)   ...       0.00
freq.    1531.97  E(vib)   ...       0.00
freq.    1533.54  E(vib)   ...       0.00
freq.    1584.12  E(vib)   ...       0.00
freq.    1642.24  E(vib)   ...       0.00
freq.    1647.41  E(vib)   ...       0.00
freq.    1663.17  E(vib)   ...       0.00
freq.    1696.01  E(vib)   ...       0.00
freq.    1780.28  E(vib)   ...       0.00
freq.    3022.69  E(vib)   ...       0.00
freq.    3037.62  E(vib)   ...       0.00
freq.    3049.53  E(vib)   ...       0.00
freq.    3071.17  E(vib)   ...       0.00
freq.    3072.08  E(vib)   ...       0.00
freq.    3107.10  E(vib)   ...       0.00
freq.    3109.25  E(vib)   ...       0.00
freq.    3132.99  E(vib)   ...       0.00
freq.    3154.49  E(vib)   ...       0.00
freq.    3165.23  E(vib)   ...       0.00
freq.    3187.61  E(vib)   ...       0.00
freq.    3191.60  E(vib)   ...       0.00
freq.    3193.60  E(vib)   ...       0.00
freq.    3206.39  E(vib)   ...       0.00
freq.    3220.47  E(vib)   ...       0.00
freq.    3221.47  E(vib)   ...       0.00
freq.    3229.76  E(vib)   ...       0.00
freq.    3235.44  E(vib)   ...       0.00
freq.    3242.40  E(vib)   ...       0.00
freq.    3247.60  E(vib)   ...       0.00

------------
INNER ENERGY
------------

The inner energy is: U= E(el) + E(ZPE) + E(vib) + E(rot) + E(trans)
    E(el)   - is the total energy from the electronic structure calculation
              = E(kin-el) + E(nuc-el) + E(el-el) + E(nuc-nuc)
    E(ZPE)  - the the zero temperature vibrational energy from the frequency calculation
    E(vib)  - the the finite temperature correction to E(ZPE) due to population
              of excited vibrational states
    E(rot)  - is the rotational thermal energy
    E(trans)- is the translational thermal energy

Summary of contributions to the inner energy U:

Rotational constants in cm-1:     0.010808     0.006439     0.005838

                             ****ORCA TERMINATED NORMALLY****
TOTAL RUN TIME: 0 days 1 hours 59 minutes 12 seconds 608 msec
