                         Program Version 5.0.4 -  RELEASE  -
|  1> %pal nprocs 24 end
|  2> ! PBE0 D3BJ def2-TZVP TightSCF OPT FREQ TightOpt
|  3> ! CPCM(dmso)
|  4> %scf
|  5> MaxIter 800
|  6> end
|  7>
|  8> %geom
|  9> MaxIter 800
| 10> MaxStep 0.15
| 11> end
| 12>
| 13> *xyz 0 1
| 14> C      -3.80443600     -2.48471400     -1.06948000
| 15> C      -2.94239300     -2.43126800     -2.16366000
| 16> C      -1.64822100     -1.98704400     -1.97828000
| 17> N      -1.21930900     -1.60644400     -0.75842500
| 18> C      -2.03322600     -1.65736600      0.31401300
| 19> C      -3.33861900     -2.09264600      0.18330300
| 20> C       0.16885100     -1.15407700     -0.60158900
| 21> C       0.95852600     -2.25300000      0.09876800
| 22> O       0.46527700     -3.09799100      0.80162300
| 23> O       2.24472400     -2.12707300     -0.16029000
| 24> C       3.13580100     -2.96059900      0.57993300
| 25> H      -4.83398600     -2.82753700     -1.19357100
| 26> H      -0.92393800     -1.91692900     -2.79121100
| 27> H      -1.61921500     -1.33380000      1.26782800
| 28> H      -3.97881400     -2.11723100      1.06575700
| 29> H       0.58351900     -0.99645100     -1.60491400
| 30> H       3.08711200     -2.68694300      1.64345900
| 31> H       4.13599800     -2.76196300      0.18128000
| 32> H      -3.26363900     -2.72781800     -3.16284100
| 33> C       1.67425300      0.66555500      0.30428800
| 34> C       0.26620900      0.17452200      0.19161800
| 35> C      -0.71612700      1.23218500     -0.27075200
| 36> C      -1.15404300      1.37862200     -1.58603600
| 37> C      -2.08671300      2.35461100     -1.93914800
| 38> C      -2.58573800      3.20880200     -0.95999900
| 39> C      -2.16129300      3.09208300      0.36382700
| 40> C      -1.22814900      2.10899800      0.71131000
| 41> O      -0.76493500      1.92817900      1.96396400
| 42> C      -1.24785300      2.74579300      3.00429400
| 43> N       2.32191600      1.17023200     -0.81628800
| 44> O       3.41948100      1.71308500     -0.76252200
| 45> H       0.00987000     -0.04854500      1.23495000
| 46> H      -0.74967900      0.72534000     -2.36000300
| 47> H      -2.41518700      2.44581100     -2.97670100
| 48> H      -3.31576600      3.97957200     -1.22001500
| 49> H      -2.56042600      3.76743100      1.12095100
| 50> H      -1.00499400      3.80676600      2.82863600
| 51> H      -0.74756100      2.40851400      3.92022100
| 52> H      -2.33871100      2.64167800      3.12692200
| 53> O       1.71752500      1.04284200     -1.89428800
| 54> H       2.87092200     -4.01860800      0.45173300
| 55> N       2.38628700      0.36449500      1.45997600
| 56> O       3.52922200      0.76685400      1.64936900
| 57> O       1.81716500     -0.36003100      2.29938200
| 58> *
| 59>
| 60>                          ****END OF INPUT****
 Total Charge           Charge          ....    0
 Multiplicity           Mult            ....    1
 Number of Electrons    NEL             ....  196
Dispersion correction           -0.057342327
FINAL SINGLE POINT ENERGY     -1347.743668879390
Dispersion correction            ... done
Dispersion correction           -0.057194651
FINAL SINGLE POINT ENERGY     -1347.745315334926
Dispersion correction            ... done
Dispersion correction           -0.057428218
FINAL SINGLE POINT ENERGY     -1347.744934775688
Dispersion correction            ... done
FINAL SINGLE POINT ENERGY     -1347.745548896686
FINAL SINGLE POINT ENERGY     -1347.745182186276
FINAL SINGLE POINT ENERGY     -1347.745859119850
FINAL SINGLE POINT ENERGY     -1347.745637153903
FINAL SINGLE POINT ENERGY     -1347.745880158464
FINAL SINGLE POINT ENERGY     -1347.745880553079
FINAL SINGLE POINT ENERGY     -1347.745877568238
FINAL SINGLE POINT ENERGY     -1347.745885232184
FINAL SINGLE POINT ENERGY     -1347.745888375751
FINAL SINGLE POINT ENERGY     -1347.745890605683
FINAL SINGLE POINT ENERGY     -1347.745892838783
FINAL SINGLE POINT ENERGY     -1347.745896264911
FINAL SINGLE POINT ENERGY     -1347.745894848760
FINAL SINGLE POINT ENERGY     -1347.745896256047
Dispersion correction           -0.057293063
FINAL SINGLE POINT ENERGY     -1347.745895237297
Dispersion correction            ... done
Dispersion correction           -0.057289755
FINAL SINGLE POINT ENERGY     -1347.745896564547
Dispersion correction            ... done
                    ***********************HURRAY********************

CARTESIAN COORDINATES (ANGSTROEM)
---------------------------------
  C     -3.786925   -2.521606   -1.073211
  C     -2.919252   -2.482072   -2.154228
  C     -1.637930   -2.024745   -1.967008
  N     -1.224656   -1.618542   -0.755425
  C     -2.045502   -1.659258    0.305508
  C     -3.338642   -2.105480    0.170249
  C      0.161105   -1.153201   -0.602486
  C      0.966136   -2.261754    0.063399
  O      0.483978   -3.135360    0.735925
  O      2.248342   -2.114798   -0.199147
  C      3.140109   -3.024476    0.460710
  H     -4.803851   -2.872157   -1.199572
  H     -0.912975   -1.962385   -2.767307
  H     -1.645698   -1.325510    1.250936
  H     -3.980489   -2.121203    1.040365
  H      0.556751   -0.980207   -1.601527
  H      3.038861   -2.919883    1.540695
  H      4.137087   -2.736931    0.139456
  H     -3.225383   -2.797683   -3.142187
  C      1.648131    0.653217    0.361170
  C      0.245641    0.157284    0.214625
  C     -0.724603    1.222932   -0.251363
  C     -1.180139    1.344391   -1.554853
  C     -2.098292    2.320696   -1.916462
  C     -2.566755    3.201025   -0.955722
  C     -2.124302    3.109837    0.356780
  C     -1.205652    2.126340    0.710753
  O     -0.722901    1.972305    1.962342
  C     -1.195366    2.839990    2.975776
  N      2.312358    1.181628   -0.726451
  O      3.418402    1.716733   -0.652974
  H     -0.032007   -0.087462    1.239502
  H     -0.803516    0.673619   -2.316229
  H     -2.438414    2.390818   -2.942619
  H     -3.283659    3.970028   -1.220587
  H     -2.497511    3.803686    1.097750
  H     -0.940629    3.880087    2.754088
  H     -0.695928    2.530599    3.891423
  H     -2.278069    2.748935    3.100160
  O      1.724465    1.072966   -1.819148
  H      2.918914   -4.048405    0.161424
  N      2.297493    0.449269    1.566537
  O      3.394399    0.946672    1.820400
  O      1.726560   -0.286046    2.395920

 Multiplicity           Mult            ....    1
 Number of Electrons    NEL             ....  196
 Basis Dimension        Dim             ....  939

ORBITAL ENERGIES
----------------

  NO   OCC          E(Eh)            E(eV)
   0   2.0000     -19.275877      -524.5233
   1   2.0000     -19.246509      -523.7241
   2   2.0000     -19.216754      -522.9145
   3   2.0000     -19.210349      -522.7402
   4   2.0000     -19.209018      -522.7040
   5   2.0000     -19.208923      -522.7014
   6   2.0000     -19.207253      -522.6559
   7   2.0000     -14.602882      -397.3646
   8   2.0000     -14.601731      -397.3333
   9   2.0000     -14.518855      -395.0781
  10   2.0000     -10.375193      -282.3234
  11   2.0000     -10.317003      -280.7399
  12   2.0000     -10.316618      -280.7294
  13   2.0000     -10.311738      -280.5967
  14   2.0000     -10.293443      -280.0988
  15   2.0000     -10.291915      -280.0572
  16   2.0000     -10.282557      -279.8026
  17   2.0000     -10.275127      -279.6004
  18   2.0000     -10.271583      -279.5040
  19   2.0000     -10.271467      -279.5008
  20   2.0000     -10.271336      -279.4973
  21   2.0000     -10.266705      -279.3712
  22   2.0000     -10.242926      -278.7242
  23   2.0000     -10.230936      -278.3979
  24   2.0000     -10.229621      -278.3621
  25   2.0000     -10.225716      -278.2559
  26   2.0000     -10.221378      -278.1378
  27   2.0000      -1.248263       -33.9669
  28   2.0000      -1.232009       -33.5247
  29   2.0000      -1.167704       -31.7748
  30   2.0000      -1.109320       -30.1861
  31   2.0000      -1.090567       -29.6758
  32   2.0000      -1.071924       -29.1685
  33   2.0000      -1.058468       -28.8024
  34   2.0000      -1.049570       -28.5603
  35   2.0000      -0.917444       -24.9649
  36   2.0000      -0.894102       -24.3297
  37   2.0000      -0.884407       -24.0659
  38   2.0000      -0.850085       -23.1320
  39   2.0000      -0.834853       -22.7175
  40   2.0000      -0.799972       -21.7683
  41   2.0000      -0.778981       -21.1971
  42   2.0000      -0.758213       -20.6320
  43   2.0000      -0.748027       -20.3549
  44   2.0000      -0.731299       -19.8997
  45   2.0000      -0.719286       -19.5728
  46   2.0000      -0.711634       -19.3646
  47   2.0000      -0.683615       -18.6021
  48   2.0000      -0.631097       -17.1730
  49   2.0000      -0.625611       -17.0237
  50   2.0000      -0.612374       -16.6635
  51   2.0000      -0.585625       -15.9357
  52   2.0000      -0.583307       -15.8726
  53   2.0000      -0.576245       -15.6804
  54   2.0000      -0.565428       -15.3861
  55   2.0000      -0.561093       -15.2681
  56   2.0000      -0.555643       -15.1198
  57   2.0000      -0.550190       -14.9714
  58   2.0000      -0.534700       -14.5499
  59   2.0000      -0.533534       -14.5182
  60   2.0000      -0.524384       -14.2692
  61   2.0000      -0.515387       -14.0244
  62   2.0000      -0.515085       -14.0162
  63   2.0000      -0.510320       -13.8865
  64   2.0000      -0.509293       -13.8586
  65   2.0000      -0.501464       -13.6455
  66   2.0000      -0.499111       -13.5815
  67   2.0000      -0.494525       -13.4567
  68   2.0000      -0.488578       -13.2949
  69   2.0000      -0.480848       -13.0845
  70   2.0000      -0.466042       -12.6817
  71   2.0000      -0.461241       -12.5510
  72   2.0000      -0.448079       -12.1928
  73   2.0000      -0.435743       -11.8572
  74   2.0000      -0.430630       -11.7181
  75   2.0000      -0.424497       -11.5511
  76   2.0000      -0.419971       -11.4280
  77   2.0000      -0.417130       -11.3507
  78   2.0000      -0.402853       -10.9622
  79   2.0000      -0.396448       -10.7879
  80   2.0000      -0.387902       -10.5554
  81   2.0000      -0.385237       -10.4828
  82   2.0000      -0.366977        -9.9860
  83   2.0000      -0.354382        -9.6432
  84   2.0000      -0.346024        -9.4158
  85   2.0000      -0.343483        -9.3466
  86   2.0000      -0.341549        -9.2940
  87   2.0000      -0.340824        -9.2743
  88   2.0000      -0.328725        -8.9451
  89   2.0000      -0.317951        -8.6519
  90   2.0000      -0.315130        -8.5751
  91   2.0000      -0.308811        -8.4032
  92   2.0000      -0.305798        -8.3212
  93   2.0000      -0.303176        -8.2498
  94   2.0000      -0.273222        -7.4347
  95   2.0000      -0.268305        -7.3010
  96   2.0000      -0.246786        -6.7154
  97   2.0000      -0.238097        -6.4789
  98   0.0000      -0.090010        -2.4493
  99   0.0000      -0.067469        -1.8359
 100   0.0000      -0.054526        -1.4837
 101   0.0000      -0.016797        -0.4571
 102   0.0000      -0.006474        -0.1762

MULLIKEN ATOMIC CHARGES
-----------------------
   0 C :   -0.075647
   1 C :   -0.120481
   2 C :   -0.047016
   3 N :    0.187539
   4 C :   -0.014115
   5 C :   -0.136114
   6 C :   -0.050044
   7 C :    0.301245
   8 O :   -0.364707
   9 O :   -0.202312
  10 C :   -0.258902
  11 H :    0.191781
  12 H :    0.213336
  13 H :    0.203487
  14 H :    0.193729
  15 H :    0.192713
  16 H :    0.156282
  17 H :    0.167879
  18 H :    0.194615
  19 C :   -0.326766
  20 C :    0.018743
  21 C :    0.007720
  22 C :   -0.141161
  23 C :   -0.199401
  24 C :   -0.149869
  25 C :   -0.303842
  26 C :    0.264609
  27 O :   -0.256709
  28 C :   -0.285340
  29 N :    0.492363
  30 O :   -0.426846
  31 H :    0.157954
  32 H :    0.149909
  33 H :    0.146093
  34 H :    0.151516
  35 H :    0.164055
  36 H :    0.151805
  37 H :    0.161788
  38 H :    0.150939
  39 O :   -0.452430
  40 H :    0.161443
  41 N :    0.525099
  42 O :   -0.430243
  43 O :   -0.464697
Sum of atomic charges:   -0.0000000

LOEWDIN ATOMIC CHARGES
----------------------
   0 C :   -0.047048
   1 C :   -0.091726
   2 C :   -0.075500
   3 N :    0.340819
   4 C :   -0.071178
   5 C :   -0.091283
   6 C :   -0.149720
   7 C :   -0.480396
   8 O :    0.107788
   9 O :    0.288847
  10 C :   -0.291132
  11 H :    0.173659
  12 H :    0.179333
  13 H :    0.178761
  14 H :    0.175722
  15 H :    0.185617
  16 H :    0.120347
  17 H :    0.125324
  18 H :    0.175863
  19 C :   -0.266547
  20 C :   -0.188660
  21 C :   -0.108914
  22 C :   -0.113101
  23 C :   -0.166563
  24 C :   -0.145662
  25 C :   -0.141383
  26 C :   -0.229016
  27 O :    0.252183
  28 C :   -0.324243
  29 N :   -0.055330
  30 O :   -0.122734
  31 H :    0.188619
  32 H :    0.158716
  33 H :    0.152279
  34 H :    0.154574
  35 H :    0.160436
  36 H :    0.117715
  37 H :    0.121777
  38 H :    0.117570
  39 O :   -0.119116
  40 H :    0.122431
  41 N :   -0.056759
  42 O :   -0.120034
  43 O :   -0.142336

  Mayer bond orders larger than 0.100000
B(  0-C ,  1-C ) :   1.3998 B(  0-C ,  5-C ) :   1.4034 B(  0-C , 11-H ) :   0.9400
B(  1-C ,  2-C ) :   1.4488 B(  1-C , 18-H ) :   0.9433 B(  2-C ,  3-N ) :   1.2784
B(  2-C , 12-H ) :   0.9324 B(  3-N ,  4-C ) :   1.2642 B(  3-N ,  6-C ) :   0.8669
B(  4-C ,  5-C ) :   1.4440 B(  4-C , 13-H ) :   0.9325 B(  5-C , 14-H ) :   0.9443
B(  6-C ,  7-C ) :   0.9450 B(  6-C , 15-H ) :   0.9257 B(  6-C , 20-C ) :   0.9309
B(  7-C ,  8-O ) :   1.9937 B(  7-C ,  9-O ) :   1.2872 B(  9-O , 10-C ) :   0.8782
B( 10-C , 16-H ) :   0.9649 B( 10-C , 17-H ) :   0.9633 B( 10-C , 40-H ) :   0.9615
B( 19-C , 20-C ) :   1.0492 B( 19-C , 29-N ) :   1.2380 B( 19-C , 30-O ) :   0.1373
B( 19-C , 41-N ) :   1.2203 B( 19-C , 42-O ) :   0.1464 B( 20-C , 21-C ) :   0.8493
B( 20-C , 31-H ) :   0.9314 B( 21-C , 22-C ) :   1.3823 B( 21-C , 26-C ) :   1.2918
B( 22-C , 23-C ) :   1.4133 B( 22-C , 32-H ) :   0.9445 B( 23-C , 24-C ) :   1.4065
B( 23-C , 33-H ) :   0.9822 B( 24-C , 25-C ) :   1.3968 B( 24-C , 34-H ) :   0.9687
B( 25-C , 26-C ) :   1.3598 B( 25-C , 35-H ) :   0.9631 B( 26-C , 27-O ) :   1.1204
B( 27-O , 28-C ) :   0.9410 B( 28-C , 36-H ) :   0.9621 B( 28-C , 37-H ) :   0.9645
B( 28-C , 38-H ) :   0.9619 B( 29-N , 30-O ) :   1.4868 B( 29-N , 39-O ) :   1.4194
B( 30-O , 39-O ) :   0.1172 B( 41-N , 42-O ) :   1.4726 B( 41-N , 43-O ) :   1.4137
B( 42-O , 43-O ) :   0.1158

Dispersion correction           -0.057289396
FINAL SINGLE POINT ENERGY     -1347.745896666775

DIPOLE MOMENT
-------------
                                X             Y             Z
Electronic contribution:      7.79098      -2.20152      -2.58930
Nuclear contribution   :    -15.75379      -1.65025       0.52129
                        -----------------------------------------
Total Dipole Moment    :     -7.96281      -3.85176      -2.06801
                        -----------------------------------------
Magnitude (a.u.)       :      9.08400
Magnitude (Debye)      :     23.08970

Dispersion correction in the Hessian             ... done   (      0.7 sec)

VIBRATIONAL FREQUENCIES
-----------------------

Scaling factor for frequencies =  1.000000000  (already applied!)

   0:         0.00 cm**-1
   1:         0.00 cm**-1
   2:         0.00 cm**-1
   3:         0.00 cm**-1
   4:         0.00 cm**-1
   5:         0.00 cm**-1
   6:         8.96 cm**-1
   7:        23.58 cm**-1
   8:        24.91 cm**-1
   9:        40.56 cm**-1
  10:        51.88 cm**-1
  11:        54.64 cm**-1
  12:        65.05 cm**-1
  13:        70.99 cm**-1
  14:        77.55 cm**-1
  15:        91.54 cm**-1
  16:       102.92 cm**-1
  17:       113.25 cm**-1
  18:       138.28 cm**-1
  19:       147.26 cm**-1
  20:       164.85 cm**-1
  21:       183.17 cm**-1
  22:       194.03 cm**-1
  23:       228.47 cm**-1
  24:       235.44 cm**-1
  25:       249.00 cm**-1
  26:       259.27 cm**-1
  27:       279.82 cm**-1
  28:       288.72 cm**-1
  29:       308.33 cm**-1
  30:       334.69 cm**-1
  31:       360.68 cm**-1
  32:       367.72 cm**-1
  33:       405.68 cm**-1
  34:       431.72 cm**-1
  35:       468.69 cm**-1
  36:       473.07 cm**-1
  37:       497.31 cm**-1
  38:       503.94 cm**-1
  39:       542.36 cm**-1
  40:       561.30 cm**-1
  41:       584.39 cm**-1
  42:       620.63 cm**-1
  43:       634.75 cm**-1
  44:       658.00 cm**-1
  45:       695.94 cm**-1
  46:       710.57 cm**-1
  47:       733.59 cm**-1
  48:       757.94 cm**-1
  49:       769.16 cm**-1
  50:       775.33 cm**-1
  51:       785.94 cm**-1
  52:       797.69 cm**-1
  53:       801.18 cm**-1
  54:       810.40 cm**-1
  55:       816.78 cm**-1
  56:       864.87 cm**-1
  57:       878.24 cm**-1
  58:       881.39 cm**-1
  59:       890.75 cm**-1
  60:       921.05 cm**-1
  61:       959.82 cm**-1
  62:       963.36 cm**-1
  63:       988.85 cm**-1
  64:       989.88 cm**-1
  65:      1014.84 cm**-1
  66:      1042.84 cm**-1
  67:      1052.09 cm**-1
  68:      1056.13 cm**-1
  69:      1063.62 cm**-1
  70:      1076.62 cm**-1
  71:      1085.32 cm**-1
  72:      1086.18 cm**-1
  73:      1127.09 cm**-1
  74:      1147.14 cm**-1
  75:      1171.00 cm**-1
  76:      1171.62 cm**-1
  77:      1175.15 cm**-1
  78:      1176.27 cm**-1
  79:      1182.79 cm**-1
  80:      1197.96 cm**-1
  81:      1203.71 cm**-1
  82:      1213.62 cm**-1
  83:      1219.07 cm**-1
  84:      1223.97 cm**-1
  85:      1235.22 cm**-1
  86:      1245.04 cm**-1
  87:      1272.20 cm**-1
  88:      1294.05 cm**-1
  89:      1305.35 cm**-1
  90:      1320.46 cm**-1
  91:      1340.73 cm**-1
  92:      1355.12 cm**-1
  93:      1380.04 cm**-1
  94:      1388.45 cm**-1
  95:      1393.10 cm**-1
  96:      1418.55 cm**-1
  97:      1430.77 cm**-1
  98:      1463.68 cm**-1
  99:      1465.34 cm**-1
 100:      1466.28 cm**-1
 101:      1469.67 cm**-1
 102:      1470.92 cm**-1
 103:      1474.79 cm**-1
 104:      1483.44 cm**-1
 105:      1498.53 cm**-1
 106:      1527.57 cm**-1
 107:      1535.97 cm**-1
 108:      1537.00 cm**-1
 109:      1550.73 cm**-1
 110:      1647.39 cm**-1
 111:      1647.98 cm**-1
 112:      1664.22 cm**-1
 113:      1697.00 cm**-1
 114:      1800.61 cm**-1
 115:      3038.15 cm**-1
 116:      3077.33 cm**-1
 117:      3109.85 cm**-1
 118:      3120.70 cm**-1
 119:      3147.94 cm**-1
 120:      3165.06 cm**-1
 121:      3167.21 cm**-1
 122:      3193.91 cm**-1
 123:      3198.85 cm**-1
 124:      3207.91 cm**-1
 125:      3221.55 cm**-1
 126:      3223.87 cm**-1
 127:      3232.37 cm**-1
 128:      3239.68 cm**-1
 129:      3243.63 cm**-1
 130:      3250.49 cm**-1
 131:      3271.49 cm**-1

IR SPECTRUM
-----------

 Mode   freq       eps      Int      T**2         TX        TY        TZ
       cm**-1   L/(mol*cm) km/mol    a.u.
----------------------------------------------------------------------------
  6:      8.96   0.000061    0.31  0.002113  ( 0.012034  0.006033 -0.043952)
  7:     23.58   0.000341    1.72  0.004508  (-0.056633  0.035547  0.006105)
  8:     24.91   0.000436    2.21  0.005468  (-0.042694  0.010909  0.059379)
  9:     40.56   0.000099    0.50  0.000758  (-0.023365 -0.014399 -0.002168)
 10:     51.88   0.000822    4.15  0.004946  ( 0.026469 -0.063391  0.015056)
 11:     54.64   0.000491    2.48  0.002802  (-0.000073 -0.036834 -0.038020)
 12:     65.05   0.001310    6.62  0.006283  ( 0.004807 -0.049852 -0.061436)
 13:     70.99   0.000276    1.39  0.001211  (-0.000777  0.027816 -0.020903)
 14:     77.55   0.000958    4.84  0.003855  (-0.003015 -0.053909  0.030649)
 15:     91.54   0.000195    0.98  0.000664  ( 0.001581  0.013193  0.022072)
 16:    102.92   0.001402    7.09  0.004252  ( 0.042597  0.048947 -0.006429)
 17:    113.25   0.001994   10.08  0.005496  (-0.056542  0.046555  0.011456)
 18:    138.28   0.000295    1.49  0.000667  (-0.017075 -0.015066 -0.012174)
 19:    147.26   0.000769    3.89  0.001630  (-0.020430 -0.026580 -0.022487)
 20:    164.85   0.000642    3.24  0.001214  ( 0.020293  0.028330 -0.000259)
 21:    183.17   0.000376    1.90  0.000640  (-0.022498  0.011563 -0.000586)
 22:    194.03   0.001789    9.04  0.002877  (-0.043429 -0.030959 -0.005700)
 23:    228.47   0.001894    9.57  0.002587  (-0.011475  0.029787  0.039603)
 24:    235.44   0.002532   12.79  0.003356  (-0.050629 -0.020797 -0.018974)
 25:    249.00   0.000481    2.43  0.000603  ( 0.000936  0.020603  0.013345)
 26:    259.27   0.001747    8.83  0.002103  (-0.024069  0.000557  0.039032)
 27:    279.82   0.003253   16.44  0.003628  ( 0.059153  0.002393  0.011092)
 28:    288.72   0.000617    3.12  0.000667  (-0.021264  0.007473  0.012614)
 29:    308.33   0.000499    2.52  0.000505  (-0.017733  0.010226 -0.009291)
 30:    334.69   0.000153    0.77  0.000142  (-0.011448 -0.003262 -0.000780)
 31:    360.68   0.000715    3.62  0.000619  (-0.021680 -0.007691 -0.009476)
 32:    367.72   0.003561   17.99  0.003022  (-0.047934  0.025037 -0.009865)
 33:    405.68   0.000065    0.33  0.000050  (-0.004419  0.005497  0.000797)
 34:    431.72   0.000546    2.76  0.000394  (-0.000602  0.004368 -0.019366)
 35:    468.69   0.000130    0.66  0.000087  (-0.003630 -0.008100 -0.002806)
 36:    473.07   0.000807    4.08  0.000532  (-0.018604 -0.010735  0.008433)
 37:    497.31   0.000310    1.56  0.000194  ( 0.000569  0.012871  0.005316)
 38:    503.94   0.000909    4.59  0.000563  (-0.021589  0.009316  0.003188)
 39:    542.36   0.006277   31.72  0.003612  ( 0.002800 -0.059941 -0.003336)
 40:    561.30   0.000896    4.53  0.000498  (-0.021979  0.002142  0.003243)
 41:    584.39   0.002834   14.32  0.001514  ( 0.022169  0.005061  0.031567)
 42:    620.63   0.004609   23.29  0.002318  (-0.047677  0.005066 -0.004350)
 43:    634.75   0.002370   11.98  0.001165  ( 0.023412  0.024806  0.001388)
 44:    658.00   0.000101    0.51  0.000048  (-0.005065 -0.004706  0.000576)
 45:    695.94   0.013475   68.10  0.006043  ( 0.021466 -0.073831  0.011431)
 46:    710.57   0.007196   36.36  0.003160  ( 0.049431  0.025187  0.009076)
 47:    733.59   0.018948   95.75  0.008060  ( 0.012147  0.085542 -0.024398)
 48:    757.94   0.008449   42.70  0.003479  (-0.057938 -0.005790  0.009407)
 49:    769.16   0.005189   26.22  0.002105  (-0.022744 -0.039698 -0.003461)
 50:    775.33   0.013709   69.28  0.005518  (-0.054624 -0.036909  0.034230)
 51:    785.94   0.001762    8.90  0.000700  ( 0.012185 -0.006284  0.022619)
 52:    797.69   0.001033    5.22  0.000404  (-0.012355 -0.014330 -0.006778)
 53:    801.18   0.012005   60.67  0.004676  ( 0.037610 -0.054971  0.015486)
 54:    810.40   0.005250   26.53  0.002022  ( 0.022864  0.036266  0.013550)
 55:    816.78   0.007228   36.53  0.002762  (-0.023434 -0.004005 -0.046867)
 56:    864.87   0.003723   18.82  0.001343  (-0.026533 -0.021422  0.013436)
 57:    878.24   0.000182    0.92  0.000065  ( 0.004754 -0.002938  0.005797)
 58:    881.39   0.001481    7.48  0.000524  (-0.003429  0.014605 -0.017300)
 59:    890.75   0.000887    4.48  0.000311  ( 0.005119 -0.014630 -0.008388)
 60:    921.05   0.000368    1.86  0.000125  (-0.001958  0.005299 -0.009638)
 61:    959.82   0.002276   11.50  0.000740  ( 0.022323 -0.005439  0.014564)
 62:    963.36   0.000800    4.04  0.000259  (-0.005032 -0.010929  0.010689)
 63:    988.85   0.000073    0.37  0.000023  ( 0.002393 -0.003408  0.002399)
 64:    989.88   0.000602    3.04  0.000190  (-0.011409  0.003367 -0.006945)
 65:   1014.84   0.000028    0.14  0.000008  ( 0.002829  0.000472  0.000510)
 66:   1042.84   0.010130   51.19  0.003031  (-0.024127  0.042404 -0.025517)
 67:   1052.09   0.000145    0.73  0.000043  ( 0.002913 -0.005512  0.002067)
 68:   1056.13   0.001675    8.46  0.000495  (-0.004211 -0.006754  0.020772)
 69:   1063.62   0.000769    3.89  0.000226  (-0.010047  0.001957 -0.010993)
 70:   1076.62   0.013056   65.98  0.003784  ( 0.027825 -0.049087 -0.024509)
 71:   1085.32   0.003402   17.19  0.000978  (-0.006604 -0.012919  0.027704)
 72:   1086.18   0.005799   29.30  0.001666  (-0.009977 -0.015115 -0.036579)
 73:   1127.09   0.004243   21.44  0.001175  ( 0.018298 -0.006994 -0.028124)
 74:   1147.14   0.006347   32.08  0.001727  ( 0.003041 -0.012849 -0.039400)
 75:   1171.00   0.000650    3.29  0.000173  (-0.002599  0.004899  0.011939)
 76:   1171.62   0.000298    1.51  0.000079  ( 0.006077  0.002774 -0.005895)
 77:   1175.15   0.001945    9.83  0.000516  ( 0.001960  0.022049  0.005145)
 78:   1176.27   0.000298    1.51  0.000079  ( 0.005784  0.003171 -0.005967)
 79:   1182.79   0.028064  141.82  0.007404  ( 0.011780  0.030685 -0.079524)
 80:   1197.96   0.004901   24.77  0.001277  (-0.015499  0.008075 -0.031167)
 81:   1203.71   0.054654  276.20  0.014169  ( 0.048032 -0.016505  0.107654)
 82:   1213.62   0.070002  353.76  0.018000  ( 0.003674 -0.009826  0.133754)
 83:   1219.07   0.032101  162.23  0.008217  (-0.039817  0.015020 -0.080040)
 84:   1223.97   0.023587  119.20  0.006014  ( 0.037784  0.035952 -0.057391)
 85:   1235.22   0.005606   28.33  0.001416  (-0.030001 -0.000825 -0.022704)
 86:   1245.04   0.241931  1222.62  0.060639  (-0.052528 -0.084729  0.225169)
 87:   1272.20   0.048742  246.32  0.011956  ( 0.103971 -0.033791  0.002078)
 88:   1294.05   0.030127  152.25  0.007265  (-0.048450  0.066995 -0.020721)
 89:   1305.35   0.201077  1016.16  0.048071  (-0.078283  0.039728 -0.200908)
 90:   1320.46   0.005493   27.76  0.001298  ( 0.002048  0.000194 -0.035970)
 91:   1340.73   0.018466   93.32  0.004298  (-0.044623 -0.014591  0.045760)
 92:   1355.12   0.028555  144.30  0.006576  ( 0.059145 -0.054334 -0.011196)
 93:   1380.04   0.009581   48.42  0.002166  ( 0.012346  0.022901 -0.038595)
 94:   1388.45   0.011462   57.93  0.002576  ( 0.016594 -0.000582 -0.047964)
 95:   1393.10   0.011020   55.69  0.002469  ( 0.046690  0.015087 -0.007812)
 96:   1418.55   0.005105   25.80  0.001123  (-0.027178  0.015687 -0.011758)
 97:   1430.77   0.007683   38.83  0.001676  (-0.004975 -0.035560 -0.019659)
 98:   1463.68   0.012417   62.75  0.002647  (-0.008952  0.019615 -0.046717)
 99:   1465.34   0.004820   24.36  0.001026  (-0.005299 -0.004800 -0.031231)
100:   1466.28   0.002628   13.28  0.000559  (-0.000293  0.020762  0.011317)
101:   1469.67   0.010125   51.17  0.002150  (-0.026626  0.030756 -0.022248)
102:   1470.92   0.007763   39.23  0.001647  ( 0.040071 -0.006389  0.000689)
103:   1474.79   0.002905   14.68  0.000615  ( 0.018307  0.015873 -0.005264)
104:   1483.44   0.004286   21.66  0.000902  (-0.008072  0.002391 -0.028822)
105:   1498.53   0.018342   92.69  0.003820  (-0.018402 -0.006735 -0.058614)
106:   1527.57   0.018149   91.72  0.003708  ( 0.022545 -0.007525 -0.056060)
107:   1535.97   0.026028  131.54  0.005288  (-0.002180  0.006089 -0.072432)
108:   1537.00   0.007830   39.57  0.001590  (-0.023054 -0.007680 -0.031612)
109:   1550.73   0.256075  1294.10  0.051532  ( 0.204472  0.091752  0.036115)
110:   1647.39   0.006347   32.08  0.001202  (-0.001784  0.022736  0.026120)
111:   1647.98   0.000847    4.28  0.000160  (-0.002641  0.000825 -0.012359)
112:   1664.22   0.012372   62.52  0.002320  ( 0.018597 -0.002258  0.044373)
113:   1697.00   0.017085   86.34  0.003142  ( 0.052048  0.018419  0.009671)
114:   1800.61   0.094928  479.73  0.016452  ( 0.072053  0.087356 -0.060243)
115:   3038.15   0.012616   63.76  0.001296  (-0.010509  0.020731  0.027490)
116:   3077.33   0.004944   24.98  0.000501  (-0.015870  0.013798 -0.007687)
117:   3109.85   0.007474   37.77  0.000750  ( 0.020513  0.017359 -0.005280)
118:   3120.70   0.003997   20.20  0.000400  ( 0.010945  0.006524  0.015406)
119:   3147.94   0.001788    9.04  0.000177  ( 0.000499  0.008136 -0.010528)
120:   3165.06   0.002592   13.10  0.000256  (-0.000336 -0.010838 -0.011744)
121:   3167.21   0.003812   19.27  0.000376  ( 0.009452 -0.006137  0.015767)
122:   3193.91   0.000355    1.79  0.000035  ( 0.004345 -0.003923 -0.000656)
123:   3198.85   0.001447    7.31  0.000141  ( 0.010443  0.004158 -0.003843)
124:   3207.91   0.003247   16.41  0.000316  (-0.008844  0.012883 -0.008467)
125:   3221.55   0.002547   12.87  0.000247  ( 0.002449  0.008155  0.013201)
126:   3223.87   0.000027    0.14  0.000003  (-0.001401 -0.000333  0.000762)
127:   3232.37   0.000268    1.35  0.000026  ( 0.002391 -0.003336 -0.003002)
128:   3239.68   0.001058    5.35  0.000102  ( 0.008727  0.001571 -0.004828)
129:   3243.63   0.001109    5.61  0.000107  ( 0.008966  0.001380 -0.004942)
130:   3250.49   0.002021   10.22  0.000194  (-0.001600  0.002688  0.013575)
131:   3271.49   0.002720   13.75  0.000259  (-0.003400 -0.003882 -0.015259)

--------------------------
THERMOCHEMISTRY AT 298.15K
--------------------------

Temperature         ... 298.15 K
Pressure            ... 1.00 atm
Total Mass          ... 375.34 AMU

Throughout the following assumptions are being made:
  (1) The electronic state is orbitally nondegenerate
  (2) There are no thermally accessible electronically excited states
  (3) Hindered rotations indicated by low frequency modes are not
      treated as such but are treated as vibrations and this may
      cause some error
  (4) All equations used are the standard statistical mechanics
      equations for an ideal gas
  (5) All vibrations are strictly harmonic

freq.       8.96  E(vib)   ...       0.58
freq.      23.58  E(vib)   ...       0.56
freq.      24.91  E(vib)   ...       0.56
freq.      40.56  E(vib)   ...       0.54
freq.      51.88  E(vib)   ...       0.52
freq.      54.64  E(vib)   ...       0.52
freq.      65.05  E(vib)   ...       0.50
freq.      70.99  E(vib)   ...       0.50
freq.      77.55  E(vib)   ...       0.49
freq.      91.54  E(vib)   ...       0.47
freq.     102.92  E(vib)   ...       0.46
freq.     113.25  E(vib)   ...       0.45
freq.     138.28  E(vib)   ...       0.42
freq.     147.26  E(vib)   ...       0.41
freq.     164.85  E(vib)   ...       0.39
freq.     183.17  E(vib)   ...       0.37
freq.     194.03  E(vib)   ...       0.36
freq.     228.47  E(vib)   ...       0.32
freq.     235.44  E(vib)   ...       0.32
freq.     249.00  E(vib)   ...       0.31
freq.     259.27  E(vib)   ...       0.30
freq.     279.82  E(vib)   ...       0.28
freq.     288.72  E(vib)   ...       0.27
freq.     308.33  E(vib)   ...       0.26
freq.     334.69  E(vib)   ...       0.24
freq.     360.68  E(vib)   ...       0.22
freq.     367.72  E(vib)   ...       0.21
freq.     405.68  E(vib)   ...       0.19
freq.     431.72  E(vib)   ...       0.18
freq.     468.69  E(vib)   ...       0.16
freq.     473.07  E(vib)   ...       0.15
freq.     497.31  E(vib)   ...       0.14
freq.     503.94  E(vib)   ...       0.14
freq.     542.36  E(vib)   ...       0.12
freq.     561.30  E(vib)   ...       0.11
freq.     584.39  E(vib)   ...       0.11
freq.     620.63  E(vib)   ...       0.09
freq.     634.75  E(vib)   ...       0.09
freq.     658.00  E(vib)   ...       0.08
freq.     695.94  E(vib)   ...       0.07
freq.     710.57  E(vib)   ...       0.07
freq.     733.59  E(vib)   ...       0.06
freq.     757.94  E(vib)   ...       0.06
freq.     769.16  E(vib)   ...       0.06
freq.     775.33  E(vib)   ...       0.05
freq.     785.94  E(vib)   ...       0.05
freq.     797.69  E(vib)   ...       0.05
freq.     801.18  E(vib)   ...       0.05
freq.     810.40  E(vib)   ...       0.05
freq.     816.78  E(vib)   ...       0.05
freq.     864.87  E(vib)   ...       0.04
freq.     878.24  E(vib)   ...       0.04
freq.     881.39  E(vib)   ...       0.04
freq.     890.75  E(vib)   ...       0.04
freq.     921.05  E(vib)   ...       0.03
freq.     959.82  E(vib)   ...       0.03
freq.     963.36  E(vib)   ...       0.03
freq.     988.85  E(vib)   ...       0.02
freq.     989.88  E(vib)   ...       0.02
freq.    1014.84  E(vib)   ...       0.02
freq.    1042.84  E(vib)   ...       0.02
freq.    1052.09  E(vib)   ...       0.02
freq.    1056.13  E(vib)   ...       0.02
freq.    1063.62  E(vib)   ...       0.02
freq.    1076.62  E(vib)   ...       0.02
freq.    1085.32  E(vib)   ...       0.02
freq.    1086.18  E(vib)   ...       0.02
freq.    1127.09  E(vib)   ...       0.01
freq.    1147.14  E(vib)   ...       0.01
freq.    1171.00  E(vib)   ...       0.01
freq.    1171.62  E(vib)   ...       0.01
freq.    1175.15  E(vib)   ...       0.01
freq.    1176.27  E(vib)   ...       0.01
freq.    1182.79  E(vib)   ...       0.01
freq.    1197.96  E(vib)   ...       0.01
freq.    1203.71  E(vib)   ...       0.01
freq.    1213.62  E(vib)   ...       0.01
freq.    1219.07  E(vib)   ...       0.01
freq.    1223.97  E(vib)   ...       0.01
freq.    1235.22  E(vib)   ...       0.01
freq.    1245.04  E(vib)   ...       0.01
freq.    1272.20  E(vib)   ...       0.01
freq.    1294.05  E(vib)   ...       0.01
freq.    1305.35  E(vib)   ...       0.01
freq.    1320.46  E(vib)   ...       0.01
freq.    1340.73  E(vib)   ...       0.01
freq.    1355.12  E(vib)   ...       0.01
freq.    1380.04  E(vib)   ...       0.01
freq.    1388.45  E(vib)   ...       0.00
freq.    1393.10  E(vib)   ...       0.00
freq.    1418.55  E(vib)   ...       0.00
freq.    1430.77  E(vib)   ...       0.00
freq.    1463.68  E(vib)   ...       0.00
freq.    1465.34  E(vib)   ...       0.00
freq.    1466.28  E(vib)   ...       0.00
freq.    1469.67  E(vib)   ...       0.00
freq.    1470.92  E(vib)   ...       0.00
freq.    1474.79  E(vib)   ...       0.00
freq.    1483.44  E(vib)   ...       0.00
freq.    1498.53  E(vib)   ...       0.00
freq.    1527.57  E(vib)   ...       0.00
freq.    1535.97  E(vib)   ...       0.00
freq.    1537.00  E(vib)   ...       0.00
freq.    1550.73  E(vib)   ...       0.00
freq.    1647.39  E(vib)   ...       0.00
freq.    1647.98  E(vib)   ...       0.00
freq.    1664.22  E(vib)   ...       0.00
freq.    1697.00  E(vib)   ...       0.00
freq.    1800.61  E(vib)   ...       0.00
freq.    3038.15  E(vib)   ...       0.00
freq.    3077.33  E(vib)   ...       0.00
freq.    3109.85  E(vib)   ...       0.00
freq.    3120.70  E(vib)   ...       0.00
freq.    3147.94  E(vib)   ...       0.00
freq.    3165.06  E(vib)   ...       0.00
freq.    3167.21  E(vib)   ...       0.00
freq.    3193.91  E(vib)   ...       0.00
freq.    3198.85  E(vib)   ...       0.00
freq.    3207.91  E(vib)   ...       0.00
freq.    3221.55  E(vib)   ...       0.00
freq.    3223.87  E(vib)   ...       0.00
freq.    3232.37  E(vib)   ...       0.00
freq.    3239.68  E(vib)   ...       0.00
freq.    3243.63  E(vib)   ...       0.00
freq.    3250.49  E(vib)   ...       0.00
freq.    3271.49  E(vib)   ...       0.00

------------
INNER ENERGY
------------

The inner energy is: U= E(el) + E(ZPE) + E(vib) + E(rot) + E(trans)
    E(el)   - is the total energy from the electronic structure calculation
              = E(kin-el) + E(nuc-el) + E(el-el) + E(nuc-nuc)
    E(ZPE)  - the the zero temperature vibrational energy from the frequency calculation
    E(vib)  - the the finite temperature correction to E(ZPE) due to population
              of excited vibrational states
    E(rot)  - is the rotational thermal energy
    E(trans)- is the translational thermal energy

Summary of contributions to the inner energy U:
Electronic energy                ...  -1347.74589667 Eh
Zero point energy                ...      0.33766394 Eh     211.89 kcal/mol
Thermal vibrational correction   ...      0.02177916 Eh      13.67 kcal/mol

Rotational constants in cm-1:     0.007805     0.006896     0.004948

                             ****ORCA TERMINATED NORMALLY****
TOTAL RUN TIME: 0 days 2 hours 11 minutes 39 seconds 286 msec
