                         Program Version 5.0.4 -  RELEASE  -
|  1> %pal nprocs 24 end
|  2> ! PBE0 D3BJ def2-TZVP TightSCF OPT FREQ TightOpt
|  3> ! CPCM(dmso)
|  4> %scf
|  5> MaxIter 800
|  6> end
|  7>
|  8> %geom
|  9> MaxIter 800
| 10> MaxStep 0.15
| 11> end
| 12>
| 13> *xyz 0 1
| 14> C       2.98107600      2.55622300      1.76050000
| 15> C       3.28525200      2.06335200      0.49518700
| 16> C       2.25913800      1.64257800     -0.33303100
| 17> N       0.97003300      1.72707200      0.07533600
| 18> C       0.65440700      2.18240700      1.30755800
| 19> C       1.64707800      2.61721600      2.16477100
| 20> C       0.00552000      1.11555500     -0.82526900
| 21> C      -1.36468000      1.74489600     -0.83057000
| 22> O      -1.91458900      2.30322800      0.08960300
| 23> O      -1.91846500      1.55668700     -2.01655700
| 24> C      -3.27227000      1.97449200     -2.16381300
| 25> H       3.77700900      2.89214100      2.42876700
| 26> H       2.41064100      1.28970100     -1.35639000
| 27> H      -0.40560000      2.20055500      1.55213700
| 28> H       1.36445900      2.99345700      3.14873800
| 29> H       0.42377000      1.19955900     -1.83664900
| 30> H      -3.90490900      1.49336300     -1.40559800
| 31> H      -3.57789400      1.66481200     -3.16879300
| 32> H       4.31330300      1.99973600      0.13633700
| 33> C       1.28506600     -1.10637900     -0.71922300
| 34> C      -0.06704600     -0.44820900     -0.59812300
| 35> C      -0.81261300     -0.76520200      0.67291000
| 36> C      -0.20952500     -0.71416700      1.93319000
| 37> C      -0.93181000     -0.96099000      3.10169300
| 38> C      -2.28479600     -1.27531700      3.01476200
| 39> C      -2.91757600     -1.33163700      1.77305600
| 40> C      -2.19009900     -1.07088600      0.60604500
| 41> O      -2.74267800     -1.08246700     -0.62630200
| 42> C      -4.10218200     -1.41952700     -0.76978400
| 43> N       1.89367000     -1.05072300     -1.92476300
| 44> O       2.91777200     -1.73538800     -2.16829500
| 45> H      -0.68792800     -0.75826400     -1.45322100
| 46> H       0.85526800     -0.49340100      1.99994800
| 47> H      -0.43316300     -0.91235400      4.07231800
| 48> H      -2.86442800     -1.47940300      3.91886300
| 49> H      -3.97913100     -1.57426800      1.71968600
| 50> H      -4.75467100     -0.70216800     -0.24457000
| 51> H      -4.30783200     -2.43539000     -0.39343500
| 52> H      -4.31933400     -1.38120800     -1.84433200
| 53> O       1.45625100     -0.25355000     -2.81620500
| 54> H      -3.34884000      3.06599800     -2.06088400
| 55> N       1.75836000     -2.00208400      0.24343200
| 56> C       1.40141400     -3.38779500      0.04299100
| 57> H       1.59627200     -3.96543600      0.96199700
| 58> H       0.32561300     -3.46467000     -0.17973500
| 59> H       1.96152600     -3.86301100     -0.78762300
| 60> C       3.07523600     -1.78314900      0.78898000
| 61> H       3.19115800     -0.72323300      1.06004600
| 62> H       3.20050400     -2.38199700      1.70669800
| 63> H       3.89058700     -2.04477800      0.08685600
| 64> *
| 65>
| 66>                          ****END OF INPUT****
 Total Charge           Charge          ....    0
 Multiplicity           Mult            ....    1
 Number of Electrons    NEL             ....  198
Dispersion correction           -0.066755026
FINAL SINGLE POINT ENERGY     -1277.199474490992
Dispersion correction            ... done
Dispersion correction           -0.066538622
FINAL SINGLE POINT ENERGY     -1277.201427015748
Dispersion correction            ... done
Dispersion correction           -0.066721499
FINAL SINGLE POINT ENERGY     -1277.201302795286
Dispersion correction            ... done
FINAL SINGLE POINT ENERGY     -1277.202063842990
FINAL SINGLE POINT ENERGY     -1277.202008537013
FINAL SINGLE POINT ENERGY     -1277.202168148267
FINAL SINGLE POINT ENERGY     -1277.202146236856
FINAL SINGLE POINT ENERGY     -1277.202198593557
FINAL SINGLE POINT ENERGY     -1277.202189887014
FINAL SINGLE POINT ENERGY     -1277.202194851423
FINAL SINGLE POINT ENERGY     -1277.202171833716
FINAL SINGLE POINT ENERGY     -1277.202167748360
FINAL SINGLE POINT ENERGY     -1277.202162100682
FINAL SINGLE POINT ENERGY     -1277.202151508287
FINAL SINGLE POINT ENERGY     -1277.202167716883
FINAL SINGLE POINT ENERGY     -1277.202168958197
FINAL SINGLE POINT ENERGY     -1277.202173230301
Dispersion correction           -0.066393355
FINAL SINGLE POINT ENERGY     -1277.202174925468
Dispersion correction            ... done
Dispersion correction           -0.066398539
FINAL SINGLE POINT ENERGY     -1277.202175924555
Dispersion correction            ... done
                    ***********************HURRAY********************

CARTESIAN COORDINATES (ANGSTROEM)
---------------------------------
  C      2.822458    2.628016    1.912021
  C      3.208458    2.199606    0.651402
  C      2.255246    1.727378   -0.218025
  N      0.956653    1.681505    0.141400
  C      0.565733    2.073209    1.367946
  C      1.484771    2.562752    2.266944
  C      0.049174    1.068882   -0.820633
  C     -1.300713    1.738145   -0.913317
  O     -1.877416    2.331850   -0.035839
  O     -1.788813    1.547841   -2.127871
  C     -3.122728    2.019471   -2.348913
  H      3.557899    3.008256    2.610199
  H      2.483651    1.397604   -1.222104
  H     -0.487204    1.999518    1.581490
  H      1.140369    2.881064    3.241438
  H      0.523198    1.149665   -1.799436
  H     -3.806032    1.556840   -1.637320
  H     -3.371884    1.726030   -3.364823
  H      4.240801    2.230734    0.330597
  C      1.229553   -1.185315   -0.807620
  C     -0.087795   -0.485055   -0.601138
  C     -0.803865   -0.803157    0.684252
  C     -0.174478   -0.799496    1.924934
  C     -0.870344   -1.057502    3.098634
  C     -2.225935   -1.330236    3.039152
  C     -2.886906   -1.335491    1.818642
  C     -2.184793   -1.066504    0.647504
  O     -2.771845   -1.036954   -0.570751
  C     -4.156495   -1.312391   -0.656243
  N      1.718116   -1.184003   -2.050021
  O      2.747417   -1.862190   -2.357498
  H     -0.739989   -0.760992   -1.432484
  H      0.889306   -0.614804    1.969011
  H     -0.350381   -1.046963    4.049149
  H     -2.784037   -1.540334    3.944785
  H     -3.947351   -1.545089    1.786401
  H     -4.741397   -0.580785   -0.091258
  H     -4.382617   -2.318199   -0.291153
  H     -4.411157   -1.242606   -1.711813
  O      1.165050   -0.464015   -2.954142
  H     -3.159530    3.103598   -2.243668
  N      1.812670   -1.970759    0.184580
  C      1.406840   -3.358813    0.214443
  H      1.685189   -3.800788    1.175852
  H      0.321811   -3.426412    0.111953
  H      1.870581   -3.956985   -0.584554
  C      3.196962   -1.755946    0.526832
  H      3.406300   -0.685896    0.560678
  H      3.386787   -2.171306    1.522023
  H      3.897038   -2.217000   -0.182397

 Multiplicity           Mult            ....    1
 Number of Electrons    NEL             ....  198
 Basis Dimension        Dim             ....  975

ORBITAL ENERGIES
----------------

  NO   OCC          E(Eh)            E(eV)
   0   2.0000     -19.270186      -524.3684
   1   2.0000     -19.245169      -523.6877
   2   2.0000     -19.213877      -522.8362
   3   2.0000     -19.164485      -521.4922
   4   2.0000     -19.159712      -521.3623
   5   2.0000     -14.540964      -395.6798
   6   2.0000     -14.510671      -394.8554
   7   2.0000     -14.374117      -391.1396
   8   2.0000     -10.371534      -282.2238
   9   2.0000     -10.309047      -280.5234
  10   2.0000     -10.306067      -280.4423
  11   2.0000     -10.297211      -280.2014
  12   2.0000     -10.290348      -280.0146
  13   2.0000     -10.275209      -279.6026
  14   2.0000     -10.272844      -279.5383
  15   2.0000     -10.266506      -279.3658
  16   2.0000     -10.265105      -279.3277
  17   2.0000     -10.263958      -279.2965
  18   2.0000     -10.256195      -279.0853
  19   2.0000     -10.255091      -279.0552
  20   2.0000     -10.237523      -278.5772
  21   2.0000     -10.228299      -278.3262
  22   2.0000     -10.227577      -278.3065
  23   2.0000     -10.226390      -278.2742
  24   2.0000     -10.224987      -278.2361
  25   2.0000     -10.223755      -278.2025
  26   2.0000     -10.218625      -278.0629
  27   2.0000      -1.172079       -31.8939
  28   2.0000      -1.162831       -31.6423
  29   2.0000      -1.107801       -30.1448
  30   2.0000      -1.080871       -29.4120
  31   2.0000      -1.067337       -29.0437
  32   2.0000      -0.990932       -26.9646
  33   2.0000      -0.954998       -25.9868
  34   2.0000      -0.900344       -24.4996
  35   2.0000      -0.886718       -24.1288
  36   2.0000      -0.845312       -23.0021
  37   2.0000      -0.841032       -22.8856
  38   2.0000      -0.804532       -21.8924
  39   2.0000      -0.791782       -21.5455
  40   2.0000      -0.776095       -21.1186
  41   2.0000      -0.752158       -20.4672
  42   2.0000      -0.724378       -19.7113
  43   2.0000      -0.720686       -19.6109
  44   2.0000      -0.711569       -19.3628
  45   2.0000      -0.704998       -19.1840
  46   2.0000      -0.678420       -18.4607
  47   2.0000      -0.661029       -17.9875
  48   2.0000      -0.626621       -17.0512
  49   2.0000      -0.618849       -16.8397
  50   2.0000      -0.609380       -16.5821
  51   2.0000      -0.575587       -15.6625
  52   2.0000      -0.564216       -15.3531
  53   2.0000      -0.553669       -15.0661
  54   2.0000      -0.546838       -14.8802
  55   2.0000      -0.545810       -14.8523
  56   2.0000      -0.532780       -14.4977
  57   2.0000      -0.526097       -14.3158
  58   2.0000      -0.522041       -14.2055
  59   2.0000      -0.511572       -13.9206
  60   2.0000      -0.504665       -13.7326
  61   2.0000      -0.501675       -13.6513
  62   2.0000      -0.500589       -13.6217
  63   2.0000      -0.495164       -13.4741
  64   2.0000      -0.486738       -13.2448
  65   2.0000      -0.486471       -13.2376
  66   2.0000      -0.480577       -13.0772
  67   2.0000      -0.470243       -12.7960
  68   2.0000      -0.461110       -12.5474
  69   2.0000      -0.454028       -12.3547
  70   2.0000      -0.446802       -12.1581
  71   2.0000      -0.444405       -12.0929
  72   2.0000      -0.435120       -11.8402
  73   2.0000      -0.430320       -11.7096
  74   2.0000      -0.424242       -11.5442
  75   2.0000      -0.420305       -11.4371
  76   2.0000      -0.413790       -11.2598
  77   2.0000      -0.408681       -11.1208
  78   2.0000      -0.403922       -10.9913
  79   2.0000      -0.393883       -10.7181
  80   2.0000      -0.390374       -10.6226
  81   2.0000      -0.385629       -10.4935
  82   2.0000      -0.380261       -10.3474
  83   2.0000      -0.379002       -10.3132
  84   2.0000      -0.371706       -10.1146
  85   2.0000      -0.361933        -9.8487
  86   2.0000      -0.343849        -9.3566
  87   2.0000      -0.342010        -9.3066
  88   2.0000      -0.337650        -9.1879
  89   2.0000      -0.335583        -9.1317
  90   2.0000      -0.320138        -8.7114
  91   2.0000      -0.311965        -8.4890
  92   2.0000      -0.289866        -7.8877
  93   2.0000      -0.272931        -7.4268
  94   2.0000      -0.268367        -7.3026
  95   2.0000      -0.249635        -6.7929
  96   2.0000      -0.238924        -6.5014
  97   2.0000      -0.225926        -6.1478
  98   2.0000      -0.195175        -5.3110
  99   0.0000      -0.082026        -2.2320
 100   0.0000      -0.046895        -1.2761
 101   0.0000      -0.017537        -0.4772
 102   0.0000      -0.008150        -0.2218
 103   0.0000       0.007298         0.1986

MULLIKEN ATOMIC CHARGES
-----------------------
   0 C :   -0.087019
   1 C :   -0.124632
   2 C :   -0.039480
   3 N :    0.175124
   4 C :   -0.045144
   5 C :   -0.130941
   6 C :   -0.115757
   7 C :    0.320467
   8 O :   -0.390925
   9 O :   -0.210267
  10 C :   -0.267353
  11 H :    0.186749
  12 H :    0.203645
  13 H :    0.212931
  14 H :    0.188360
  15 H :    0.181763
  16 H :    0.154639
  17 H :    0.166354
  18 H :    0.188864
  19 C :   -0.344898
  20 C :    0.313488
  21 C :   -0.092258
  22 C :   -0.196158
  23 C :   -0.191567
  24 C :   -0.162452
  25 C :   -0.300185
  26 C :    0.233645
  27 O :   -0.264060
  28 C :   -0.296662
  29 N :    0.510879
  30 O :   -0.591651
  31 H :    0.106633
  32 H :    0.182802
  33 H :    0.140954
  34 H :    0.149371
  35 H :    0.162744
  36 H :    0.153788
  37 H :    0.158356
  38 H :    0.165525
  39 O :   -0.589828
  40 H :    0.160418
  41 N :   -0.126292
  42 C :   -0.311828
  43 H :    0.134139
  44 H :    0.143390
  45 H :    0.112824
  46 C :   -0.306233
  47 H :    0.133535
  48 H :    0.131857
  49 H :    0.112343
Sum of atomic charges:   -0.0000000

LOEWDIN ATOMIC CHARGES
----------------------
   0 C :   -0.060889
   1 C :   -0.104892
   2 C :   -0.086104
   3 N :    0.340854
   4 C :   -0.082680
   5 C :   -0.102757
   6 C :   -0.161786
   7 C :   -0.473020
   8 O :    0.099808
   9 O :    0.280121
  10 C :   -0.296707
  11 H :    0.171013
  12 H :    0.175432
  13 H :    0.172261
  14 H :    0.173175
  15 H :    0.183845
  16 H :    0.119759
  17 H :    0.124407
  18 H :    0.174008
  19 C :   -0.316616
  20 C :   -0.158281
  21 C :   -0.105249
  22 C :   -0.106751
  23 C :   -0.169654
  24 C :   -0.147395
  25 C :   -0.144601
  26 C :   -0.231898
  27 O :    0.248886
  28 C :   -0.331013
  29 N :   -0.056961
  30 O :   -0.269517
  31 H :    0.185205
  32 H :    0.163631
  33 H :    0.151285
  34 H :    0.153902
  35 H :    0.159802
  36 H :    0.117231
  37 H :    0.118479
  38 H :    0.121973
  39 O :   -0.276545
  40 H :    0.120859
  41 N :    0.092957
  42 C :   -0.321749
  43 H :    0.119157
  44 H :    0.123807
  45 H :    0.105767
  46 C :   -0.334146
  47 H :    0.120431
  48 H :    0.117622
  49 H :    0.103535

  Mayer bond orders larger than 0.100000
B(  0-C ,  1-C ) :   1.3961 B(  0-C ,  5-C ) :   1.4074 B(  0-C , 11-H ) :   0.9444
B(  1-C ,  2-C ) :   1.4548 B(  1-C , 18-H ) :   0.9452 B(  2-C ,  3-N ) :   1.2663
B(  2-C , 12-H ) :   0.9222 B(  3-N ,  4-C ) :   1.2819 B(  3-N ,  6-C ) :   0.8777
B(  4-C ,  5-C ) :   1.4341 B(  4-C , 13-H ) :   0.9190 B(  5-C , 14-H ) :   0.9485
B(  6-C ,  7-C ) :   0.9702 B(  6-C , 15-H ) :   0.9006 B(  6-C , 20-C ) :   0.9001
B(  6-C , 21-C ) :   0.1239 B(  7-C ,  8-O ) :   1.9040 B(  7-C ,  9-O ) :   1.2855
B(  9-O , 10-C ) :   0.8840 B( 10-C , 16-H ) :   0.9646 B( 10-C , 17-H ) :   0.9631
B( 10-C , 40-H ) :   0.9673 B( 19-C , 20-C ) :   0.9777 B( 19-C , 29-N ) :   1.4936
B( 19-C , 30-O ) :   0.1524 B( 19-C , 39-O ) :   0.1702 B( 19-C , 41-N ) :   1.1596
B( 20-C , 21-C ) :   0.8199 B( 20-C , 31-H ) :   0.8826 B( 21-C , 22-C ) :   1.3776
B( 21-C , 26-C ) :   1.2948 B( 22-C , 23-C ) :   1.3939 B( 22-C , 32-H ) :   0.9437
B( 23-C , 24-C ) :   1.4071 B( 23-C , 33-H ) :   0.9893 B( 24-C , 25-C ) :   1.3884
B( 24-C , 34-H ) :   0.9723 B( 25-C , 26-C ) :   1.3658 B( 25-C , 35-H ) :   0.9636
B( 26-C , 27-O ) :   1.1104 B( 27-O , 28-C ) :   0.9400 B( 28-C , 36-H ) :   0.9625
B( 28-C , 37-H ) :   0.9572 B( 28-C , 38-H ) :   0.9648 B( 29-N , 30-O ) :   1.3073
B( 29-N , 39-O ) :   1.2439 B( 41-N , 42-C ) :   0.9397 B( 41-N , 46-C ) :   0.9409
B( 42-C , 43-H ) :   0.9685 B( 42-C , 44-H ) :   0.9714 B( 42-C , 45-H ) :   0.9602
B( 46-C , 47-H ) :   0.9718 B( 46-C , 48-H ) :   0.9659 B( 46-C , 49-H ) :   0.9591

Dispersion correction           -0.066409978
FINAL SINGLE POINT ENERGY     -1277.202177749265

DIPOLE MOMENT
-------------
                                X             Y             Z
Electronic contribution:      2.67457      10.30579      -3.14825
Nuclear contribution   :     -4.40740      -6.37732       7.84885
                        -----------------------------------------
Total Dipole Moment    :     -1.73283       3.92846       4.70061
                        -----------------------------------------
Magnitude (a.u.)       :      6.36641
Magnitude (Debye)      :     16.18214

Dispersion correction in the Hessian             ... done   (      0.8 sec)

VIBRATIONAL FREQUENCIES
-----------------------

Scaling factor for frequencies =  1.000000000  (already applied!)

   0:         0.00 cm**-1
   1:         0.00 cm**-1
   2:         0.00 cm**-1
   3:         0.00 cm**-1
   4:         0.00 cm**-1
   5:         0.00 cm**-1
   6:        20.63 cm**-1
   7:        26.53 cm**-1
   8:        38.91 cm**-1
   9:        50.00 cm**-1
  10:        54.69 cm**-1
  11:        60.73 cm**-1
  12:        73.26 cm**-1
  13:        85.61 cm**-1
  14:        95.78 cm**-1
  15:       103.19 cm**-1
  16:       116.70 cm**-1
  17:       121.10 cm**-1
  18:       140.63 cm**-1
  19:       151.50 cm**-1
  20:       157.73 cm**-1
  21:       174.81 cm**-1
  22:       181.85 cm**-1
  23:       192.95 cm**-1
  24:       201.42 cm**-1
  25:       216.32 cm**-1
  26:       225.31 cm**-1
  27:       238.13 cm**-1
  28:       249.83 cm**-1
  29:       273.59 cm**-1
  30:       284.68 cm**-1
  31:       300.80 cm**-1
  32:       315.27 cm**-1
  33:       328.92 cm**-1
  34:       367.29 cm**-1
  35:       387.44 cm**-1
  36:       411.45 cm**-1
  37:       424.15 cm**-1
  38:       431.71 cm**-1
  39:       486.72 cm**-1
  40:       498.24 cm**-1
  41:       524.12 cm**-1
  42:       550.48 cm**-1
  43:       567.41 cm**-1
  44:       589.02 cm**-1
  45:       595.62 cm**-1
  46:       614.72 cm**-1
  47:       654.82 cm**-1
  48:       657.39 cm**-1
  49:       698.74 cm**-1
  50:       729.22 cm**-1
  51:       737.41 cm**-1
  52:       760.58 cm**-1
  53:       762.38 cm**-1
  54:       775.46 cm**-1
  55:       789.62 cm**-1
  56:       792.95 cm**-1
  57:       805.41 cm**-1
  58:       828.53 cm**-1
  59:       847.86 cm**-1
  60:       868.98 cm**-1
  61:       873.18 cm**-1
  62:       900.03 cm**-1
  63:       952.47 cm**-1
  64:       965.63 cm**-1
  65:       971.62 cm**-1
  66:       982.69 cm**-1
  67:       989.03 cm**-1
  68:       998.56 cm**-1
  69:      1008.20 cm**-1
  70:      1044.93 cm**-1
  71:      1054.65 cm**-1
  72:      1063.42 cm**-1
  73:      1069.59 cm**-1
  74:      1072.79 cm**-1
  75:      1086.31 cm**-1
  76:      1087.07 cm**-1
  77:      1098.36 cm**-1
  78:      1118.83 cm**-1
  79:      1133.12 cm**-1
  80:      1134.76 cm**-1
  81:      1155.62 cm**-1
  82:      1167.90 cm**-1
  83:      1170.16 cm**-1
  84:      1171.19 cm**-1
  85:      1175.09 cm**-1
  86:      1175.35 cm**-1
  87:      1189.35 cm**-1
  88:      1204.46 cm**-1
  89:      1212.12 cm**-1
  90:      1218.14 cm**-1
  91:      1233.19 cm**-1
  92:      1236.30 cm**-1
  93:      1262.28 cm**-1
  94:      1264.49 cm**-1
  95:      1294.28 cm**-1
  96:      1306.15 cm**-1
  97:      1319.45 cm**-1
  98:      1327.84 cm**-1
  99:      1344.83 cm**-1
 100:      1355.17 cm**-1
 101:      1379.76 cm**-1
 102:      1382.14 cm**-1
 103:      1391.17 cm**-1
 104:      1419.05 cm**-1
 105:      1445.55 cm**-1
 106:      1452.26 cm**-1
 107:      1453.75 cm**-1
 108:      1462.42 cm**-1
 109:      1464.59 cm**-1
 110:      1465.20 cm**-1
 111:      1473.13 cm**-1
 112:      1474.26 cm**-1
 113:      1475.80 cm**-1
 114:      1483.42 cm**-1
 115:      1484.44 cm**-1
 116:      1492.14 cm**-1
 117:      1497.39 cm**-1
 118:      1507.05 cm**-1
 119:      1525.02 cm**-1
 120:      1535.04 cm**-1
 121:      1542.74 cm**-1
 122:      1638.27 cm**-1
 123:      1643.97 cm**-1
 124:      1661.19 cm**-1
 125:      1693.57 cm**-1
 126:      1789.15 cm**-1
 127:      2976.70 cm**-1
 128:      3000.53 cm**-1
 129:      3036.71 cm**-1
 130:      3060.62 cm**-1
 131:      3065.38 cm**-1
 132:      3077.22 cm**-1
 133:      3092.59 cm**-1
 134:      3103.05 cm**-1
 135:      3107.90 cm**-1
 136:      3116.78 cm**-1
 137:      3127.58 cm**-1
 138:      3161.89 cm**-1
 139:      3165.13 cm**-1
 140:      3191.62 cm**-1
 141:      3195.64 cm**-1
 142:      3208.26 cm**-1
 143:      3221.43 cm**-1
 144:      3232.58 cm**-1
 145:      3238.35 cm**-1
 146:      3238.49 cm**-1
 147:      3242.66 cm**-1
 148:      3249.65 cm**-1
 149:      3292.68 cm**-1

IR SPECTRUM
-----------

 Mode   freq       eps      Int      T**2         TX        TY        TZ
       cm**-1   L/(mol*cm) km/mol    a.u.
----------------------------------------------------------------------------
  6:     20.63   0.000734    3.71  0.011106  (-0.007474 -0.044913 -0.095041)
  7:     26.53   0.000855    4.32  0.010054  ( 0.046808  0.049495  0.073577)
  8:     38.91   0.001941    9.81  0.015567  (-0.018931 -0.113042  0.049299)
  9:     50.00   0.001068    5.40  0.006663  ( 0.055347  0.045306  0.039335)
 10:     54.69   0.001954    9.87  0.011149  ( 0.053117  0.089321 -0.018679)
 11:     60.73   0.000734    3.71  0.003770  (-0.048869 -0.035987 -0.009317)
 12:     73.26   0.000992    5.02  0.004227  ( 0.032246 -0.044859 -0.034283)
 13:     85.61   0.000827    4.18  0.003013  (-0.043649 -0.009666  0.031849)
 14:     95.78   0.000531    2.68  0.001731  (-0.013387  0.038932  0.005987)
 15:    103.19   0.003193   16.14  0.009655  (-0.037712  0.090734  0.000584)
 16:    116.70   0.002005   10.13  0.005361  (-0.027165 -0.035333 -0.058096)
 17:    121.10   0.000548    2.77  0.001412  ( 0.022369  0.011696 -0.027843)
 18:    140.63   0.000113    0.57  0.000252  (-0.000510 -0.004004 -0.015344)
 19:    151.50   0.000039    0.20  0.000080  ( 0.005550  0.003825  0.005912)
 20:    157.73   0.000355    1.80  0.000703  ( 0.003276 -0.008929  0.024746)
 21:    174.81   0.000363    1.84  0.000649  ( 0.001065  0.023254 -0.010341)
 22:    181.85   0.001896    9.58  0.003254  (-0.020664 -0.051672  0.012542)
 23:    192.95   0.000414    2.09  0.000670  (-0.014483 -0.021013  0.004361)
 24:    201.42   0.000081    0.41  0.000125  ( 0.005236  0.000783 -0.009847)
 25:    216.32   0.001679    8.49  0.002422  (-0.029612 -0.036845 -0.013707)
 26:    225.31   0.000494    2.50  0.000685  ( 0.017476 -0.008409 -0.017568)
 27:    238.13   0.003300   16.68  0.004324  ( 0.048755 -0.043735 -0.005885)
 28:    249.83   0.003367   17.01  0.004205  (-0.021475  0.017854  0.058525)
 29:    273.59   0.001245    6.29  0.001420  ( 0.022462  0.010024 -0.028540)
 30:    284.68   0.003864   19.53  0.004236  ( 0.025337  0.011164  0.058901)
 31:    300.80   0.000165    0.84  0.000172  ( 0.006695  0.004775  0.010199)
 32:    315.27   0.000312    1.58  0.000309  ( 0.004183 -0.016854  0.002677)
 33:    328.92   0.001087    5.49  0.001032  (-0.029561 -0.005676  0.011199)
 34:    367.29   0.004341   21.94  0.003688  ( 0.048853 -0.001218  0.036055)
 35:    387.44   0.000193    0.97  0.000155  ( 0.007043  0.001859 -0.010106)
 36:    411.45   0.001692    8.55  0.001283  ( 0.034762 -0.006672  0.005511)
 37:    424.15   0.000510    2.58  0.000375  (-0.012996 -0.001991 -0.014230)
 38:    431.71   0.001507    7.62  0.001090  (-0.003942  0.012662  0.030228)
 39:    486.72   0.001855    9.37  0.001189  (-0.024787 -0.010982  0.021308)
 40:    498.24   0.000471    2.38  0.000295  ( 0.002934 -0.016853  0.001474)
 41:    524.12   0.003571   18.04  0.002126  ( 0.008326 -0.027310  0.036205)
 42:    550.48   0.007506   37.93  0.004255  (-0.007828  0.064635  0.004020)
 43:    567.41   0.002875   14.53  0.001581  (-0.011838 -0.007450  0.037223)
 44:    589.02   0.002965   14.98  0.001571  (-0.007665 -0.032279 -0.021677)
 45:    595.62   0.001080    5.46  0.000566  (-0.023622 -0.002227  0.001677)
 46:    614.72   0.004153   20.99  0.002109  (-0.034954  0.020582  0.021520)
 47:    654.82   0.000510    2.58  0.000243  (-0.014033  0.006631 -0.001505)
 48:    657.39   0.002296   11.60  0.001090  (-0.020285  0.026045  0.000122)
 49:    698.74   0.017176   86.80  0.007671  (-0.001923  0.079733 -0.036195)
 50:    729.22   0.024274  122.67  0.010388  (-0.055702  0.084976  0.008004)
 51:    737.41   0.000858    4.33  0.000363  (-0.013187 -0.011054  0.008179)
 52:    760.58   0.014352   72.53  0.005888  ( 0.003109 -0.059713 -0.048094)
 53:    762.38   0.001384    6.99  0.000567  ( 0.015734  0.014103  0.010960)
 54:    775.46   0.013148   66.45  0.005291  (-0.017458  0.068909 -0.015424)
 55:    789.62   0.005269   26.63  0.002082  (-0.002305  0.045267 -0.005290)
 56:    792.95   0.001016    5.14  0.000400  ( 0.010565 -0.016951  0.001011)
 57:    805.41   0.008377   42.33  0.003246  (-0.001747 -0.018033 -0.054013)
 58:    828.53   0.000635    3.21  0.000239  (-0.012992 -0.002440 -0.008020)
 59:    847.86   0.001010    5.10  0.000372  (-0.012245  0.003016 -0.014586)
 60:    868.98   0.000327    1.65  0.000117  ( 0.000815  0.009981 -0.004142)
 61:    873.18   0.001447    7.31  0.000517  ( 0.013575 -0.011845 -0.013876)
 62:    900.03   0.005826   29.44  0.002020  (-0.026470  0.022711  0.028350)
 63:    952.47   0.006786   34.29  0.002223  (-0.006990 -0.044182 -0.014915)
 64:    965.63   0.000888    4.49  0.000287  (-0.009481  0.008688  0.011023)
 65:    971.62   0.005705   28.83  0.001832  ( 0.025812  0.020718 -0.027146)
 66:    982.69   0.007192   36.35  0.002284  ( 0.019567 -0.013496 -0.041461)
 67:    989.03   0.000202    1.02  0.000064  ( 0.004668 -0.006465  0.000069)
 68:    998.56   0.014180   71.66  0.004431  (-0.042146  0.045797  0.023618)
 69:   1008.20   0.000304    1.54  0.000094  (-0.007253  0.006028  0.002274)
 70:   1044.93   0.000216    1.09  0.000065  ( 0.002200  0.006284  0.004501)
 71:   1054.65   0.005175   26.15  0.001531  (-0.034547  0.002674 -0.018185)
 72:   1063.42   0.007191   36.34  0.002110  ( 0.037493 -0.025498  0.007369)
 73:   1069.59   0.001630    8.24  0.000475  (-0.013903 -0.016599  0.002581)
 74:   1072.79   0.010618   53.66  0.003089  (-0.053720 -0.011501  0.008398)
 75:   1086.31   0.000454    2.30  0.000131  ( 0.005256 -0.008472  0.005578)
 76:   1087.07   0.006731   34.01  0.001932  (-0.029524 -0.013682 -0.029553)
 77:   1098.36   0.004756   24.04  0.001351  ( 0.019431  0.017974 -0.025510)
 78:   1118.83   0.046537  235.18  0.012980  ( 0.033842  0.010514 -0.108279)
 79:   1133.12   0.000837    4.23  0.000230  ( 0.014839  0.002917 -0.001333)
 80:   1134.76   0.022340  112.90  0.006144  ( 0.041690  0.008758  0.065794)
 81:   1155.62   0.005370   27.14  0.001450  (-0.006879  0.006760  0.036839)
 82:   1167.90   0.037158  187.78  0.009929  ( 0.056406 -0.068381 -0.045510)
 83:   1170.16   0.007318   36.98  0.001952  ( 0.031244 -0.022741 -0.021406)
 84:   1171.19   0.005326   26.92  0.001419  ( 0.018188 -0.029160 -0.015429)
 85:   1175.09   0.000227    1.15  0.000060  (-0.001721  0.006259  0.004273)
 86:   1175.35   0.002085   10.54  0.000554  (-0.022971 -0.004874 -0.001440)
 87:   1189.35   0.000539    2.72  0.000141  ( 0.001905 -0.002365 -0.011494)
 88:   1204.46   0.002504   12.66  0.000649  ( 0.012724  0.013597  0.017379)
 89:   1212.12   0.006945   35.10  0.001788  ( 0.038042 -0.014818  0.011016)
 90:   1218.14   0.016601   83.89  0.004253  ( 0.036857 -0.052958  0.009474)
 91:   1233.19   0.010369   52.40  0.002624  (-0.037930 -0.007988 -0.033486)
 92:   1236.30   0.019214   97.10  0.004850  (-0.035268  0.006793 -0.059664)
 93:   1262.28   0.031064  156.98  0.007680  ( 0.087124 -0.002000  0.009223)
 94:   1264.49   0.068226  344.78  0.016837  (-0.086852  0.043891 -0.085835)
 95:   1294.28   0.087214  440.74  0.021028  (-0.111929 -0.000516 -0.092194)
 96:   1306.15   0.059411  300.24  0.014194  ( 0.079429 -0.064999  0.060502)
 97:   1319.45   0.038074  192.41  0.009005  (-0.048080  0.003812 -0.081724)
 98:   1327.84   0.003707   18.73  0.000871  ( 0.004923  0.028217  0.007130)
 99:   1344.83   0.022212  112.25  0.005154  (-0.035374  0.053866 -0.031644)
100:   1355.17   0.006150   31.08  0.001416  ( 0.011090 -0.015561 -0.032419)
101:   1379.76   0.004797   24.24  0.001085  ( 0.013926  0.017342  0.024296)
102:   1382.14   0.016466   83.21  0.003718  (-0.055112  0.018188  0.018701)
103:   1391.17   0.026828  135.58  0.006018  ( 0.001041 -0.011300 -0.076742)
104:   1419.05   0.000103    0.52  0.000023  ( 0.003726  0.002571 -0.001505)
105:   1445.55   0.027183  137.37  0.005868  ( 0.027692 -0.039591 -0.059447)
106:   1452.26   0.008623   43.58  0.001853  ( 0.033131 -0.013887 -0.023715)
107:   1453.75   0.001652    8.35  0.000355  ( 0.007048  0.010478 -0.013968)
108:   1462.42   0.004283   21.64  0.000914  ( 0.020904 -0.014629 -0.016214)
109:   1464.59   0.005695   28.78  0.001214  (-0.025668  0.020574 -0.011462)
110:   1465.20   0.004130   20.87  0.000880  ( 0.023625  0.017797 -0.002197)
111:   1473.13   0.004401   22.24  0.000932  ( 0.027092 -0.001422  0.014009)
112:   1474.26   0.038219  193.14  0.008090  ( 0.065486 -0.053230 -0.031115)
113:   1475.80   0.005517   27.88  0.001167  ( 0.024769 -0.004142 -0.023150)
114:   1483.42   0.006823   34.48  0.001435  (-0.011662 -0.020992 -0.029303)
115:   1484.44   0.006600   33.35  0.001387  (-0.006147 -0.004149 -0.036503)
116:   1492.14   0.056648  286.28  0.011847  ( 0.061724 -0.036132 -0.082049)
117:   1497.39   0.059027  298.30  0.012302  ( 0.012649  0.016419  0.108958)
118:   1507.05   0.039952  201.90  0.008273  (-0.039819  0.046360  0.067365)
119:   1525.02   0.011100   56.09  0.002271  (-0.014725 -0.016088 -0.042376)
120:   1535.04   0.030362  153.44  0.006172  ( 0.040761  0.009819  0.066442)
121:   1542.74   0.015373   77.69  0.003110  (-0.027554 -0.005964  0.048114)
122:   1638.27   0.003483   17.60  0.000663  (-0.005887  0.013225  0.021304)
123:   1643.97   0.007374   37.26  0.001400  ( 0.035210  0.002366  0.012425)
124:   1661.19   0.013554   68.50  0.002546  ( 0.012937 -0.002489  0.048710)
125:   1693.57   0.009958   50.32  0.001835  (-0.033003 -0.009416 -0.025634)
126:   1789.15   0.085316  431.15  0.014881  (-0.038610  0.064212  0.096265)
127:   2976.70   0.027773  140.35  0.002912  ( 0.000106 -0.050934 -0.017811)
128:   3000.53   0.032032  161.88  0.003331  ( 0.054266 -0.019605  0.001488)
129:   3036.71   0.012874   65.06  0.001323  ( 0.035158  0.007375  0.005697)
130:   3060.62   0.021324  107.76  0.002174  ( 0.006444  0.003289 -0.046063)
131:   3065.38   0.004200   21.22  0.000428  ( 0.009495  0.010153 -0.015307)
132:   3077.22   0.006262   31.64  0.000635  (-0.022015  0.009909 -0.007220)
133:   3092.59   0.000607    3.07  0.000061  (-0.006560  0.002983  0.003046)
134:   3103.05   0.012763   64.50  0.001284  (-0.016487  0.024263  0.020567)
135:   3107.90   0.007689   38.86  0.000772  (-0.004237  0.027241  0.003464)
136:   3116.78   0.007675   38.79  0.000768  (-0.024361  0.005790 -0.011894)
137:   3127.58   0.007426   37.53  0.000741  ( 0.000338  0.026730 -0.005133)
138:   3161.89   0.003372   17.04  0.000333  (-0.006550 -0.015456  0.007145)
139:   3165.13   0.003764   19.02  0.000371  ( 0.004189 -0.000526  0.018797)
140:   3191.62   0.000728    3.68  0.000071  (-0.006939 -0.001158  0.004662)
141:   3195.64   0.001891    9.55  0.000185  ( 0.001282  0.003784  0.012987)
142:   3208.26   0.003584   18.11  0.000349  (-0.000057 -0.003247  0.018387)
143:   3221.43   0.000072    0.37  0.000007  ( 0.002237  0.000343  0.001371)
144:   3232.58   0.000754    3.81  0.000073  ( 0.008014  0.002720  0.001067)
145:   3238.35   0.001051    5.31  0.000101  (-0.006317 -0.005686 -0.005389)
146:   3238.49   0.000013    0.07  0.000001  (-0.000307 -0.000146  0.001083)
147:   3242.66   0.000659    3.33  0.000063  ( 0.002026  0.002735  0.007200)
148:   3249.65   0.000924    4.67  0.000089  ( 0.007391 -0.001596 -0.005614)
149:   3292.68   0.007383   37.31  0.000700  (-0.026005  0.004496 -0.001801)

--------------------------
THERMOCHEMISTRY AT 298.15K
--------------------------

Temperature         ... 298.15 K
Pressure            ... 1.00 atm
Total Mass          ... 373.41 AMU

Throughout the following assumptions are being made:
  (1) The electronic state is orbitally nondegenerate
  (2) There are no thermally accessible electronically excited states
  (3) Hindered rotations indicated by low frequency modes are not
      treated as such but are treated as vibrations and this may
      cause some error
  (4) All equations used are the standard statistical mechanics
      equations for an ideal gas
  (5) All vibrations are strictly harmonic

freq.      20.63  E(vib)   ...       0.56
freq.      26.53  E(vib)   ...       0.56
freq.      38.91  E(vib)   ...       0.54
freq.      50.00  E(vib)   ...       0.52
freq.      54.69  E(vib)   ...       0.52
freq.      60.73  E(vib)   ...       0.51
freq.      73.26  E(vib)   ...       0.49
freq.      85.61  E(vib)   ...       0.48
freq.      95.78  E(vib)   ...       0.47
freq.     103.19  E(vib)   ...       0.46
freq.     116.70  E(vib)   ...       0.44
freq.     121.10  E(vib)   ...       0.44
freq.     140.63  E(vib)   ...       0.41
freq.     151.50  E(vib)   ...       0.40
freq.     157.73  E(vib)   ...       0.40
freq.     174.81  E(vib)   ...       0.38
freq.     181.85  E(vib)   ...       0.37
freq.     192.95  E(vib)   ...       0.36
freq.     201.42  E(vib)   ...       0.35
freq.     216.32  E(vib)   ...       0.34
freq.     225.31  E(vib)   ...       0.33
freq.     238.13  E(vib)   ...       0.32
freq.     249.83  E(vib)   ...       0.31
freq.     273.59  E(vib)   ...       0.29
freq.     284.68  E(vib)   ...       0.28
freq.     300.80  E(vib)   ...       0.26
freq.     315.27  E(vib)   ...       0.25
freq.     328.92  E(vib)   ...       0.24
freq.     367.29  E(vib)   ...       0.21
freq.     387.44  E(vib)   ...       0.20
freq.     411.45  E(vib)   ...       0.19
freq.     424.15  E(vib)   ...       0.18
freq.     431.71  E(vib)   ...       0.18
freq.     486.72  E(vib)   ...       0.15
freq.     498.24  E(vib)   ...       0.14
freq.     524.12  E(vib)   ...       0.13
freq.     550.48  E(vib)   ...       0.12
freq.     567.41  E(vib)   ...       0.11
freq.     589.02  E(vib)   ...       0.10
freq.     595.62  E(vib)   ...       0.10
freq.     614.72  E(vib)   ...       0.10
freq.     654.82  E(vib)   ...       0.08
freq.     657.39  E(vib)   ...       0.08
freq.     698.74  E(vib)   ...       0.07
freq.     729.22  E(vib)   ...       0.06
freq.     737.41  E(vib)   ...       0.06
freq.     760.58  E(vib)   ...       0.06
freq.     762.38  E(vib)   ...       0.06
freq.     775.46  E(vib)   ...       0.05
freq.     789.62  E(vib)   ...       0.05
freq.     792.95  E(vib)   ...       0.05
freq.     805.41  E(vib)   ...       0.05
freq.     828.53  E(vib)   ...       0.04
freq.     847.86  E(vib)   ...       0.04
freq.     868.98  E(vib)   ...       0.04
freq.     873.18  E(vib)   ...       0.04
freq.     900.03  E(vib)   ...       0.03
freq.     952.47  E(vib)   ...       0.03
freq.     965.63  E(vib)   ...       0.03
freq.     971.62  E(vib)   ...       0.03
freq.     982.69  E(vib)   ...       0.02
freq.     989.03  E(vib)   ...       0.02
freq.     998.56  E(vib)   ...       0.02
freq.    1008.20  E(vib)   ...       0.02
freq.    1044.93  E(vib)   ...       0.02
freq.    1054.65  E(vib)   ...       0.02
freq.    1063.42  E(vib)   ...       0.02
freq.    1069.59  E(vib)   ...       0.02
freq.    1072.79  E(vib)   ...       0.02
freq.    1086.31  E(vib)   ...       0.02
freq.    1087.07  E(vib)   ...       0.02
freq.    1098.36  E(vib)   ...       0.02
freq.    1118.83  E(vib)   ...       0.01
freq.    1133.12  E(vib)   ...       0.01
freq.    1134.76  E(vib)   ...       0.01
freq.    1155.62  E(vib)   ...       0.01
freq.    1167.90  E(vib)   ...       0.01
freq.    1170.16  E(vib)   ...       0.01
freq.    1171.19  E(vib)   ...       0.01
freq.    1175.09  E(vib)   ...       0.01
freq.    1175.35  E(vib)   ...       0.01
freq.    1189.35  E(vib)   ...       0.01
freq.    1204.46  E(vib)   ...       0.01
freq.    1212.12  E(vib)   ...       0.01
freq.    1218.14  E(vib)   ...       0.01
freq.    1233.19  E(vib)   ...       0.01
freq.    1236.30  E(vib)   ...       0.01
freq.    1262.28  E(vib)   ...       0.01
freq.    1264.49  E(vib)   ...       0.01
freq.    1294.28  E(vib)   ...       0.01
freq.    1306.15  E(vib)   ...       0.01
freq.    1319.45  E(vib)   ...       0.01
freq.    1327.84  E(vib)   ...       0.01
freq.    1344.83  E(vib)   ...       0.01
freq.    1355.17  E(vib)   ...       0.01
freq.    1379.76  E(vib)   ...       0.01
freq.    1382.14  E(vib)   ...       0.01
freq.    1391.17  E(vib)   ...       0.00
freq.    1419.05  E(vib)   ...       0.00
freq.    1445.55  E(vib)   ...       0.00
freq.    1452.26  E(vib)   ...       0.00
freq.    1453.75  E(vib)   ...       0.00
freq.    1462.42  E(vib)   ...       0.00
freq.    1464.59  E(vib)   ...       0.00
freq.    1465.20  E(vib)   ...       0.00
freq.    1473.13  E(vib)   ...       0.00
freq.    1474.26  E(vib)   ...       0.00
freq.    1475.80  E(vib)   ...       0.00
freq.    1483.42  E(vib)   ...       0.00
freq.    1484.44  E(vib)   ...       0.00
freq.    1492.14  E(vib)   ...       0.00
freq.    1497.39  E(vib)   ...       0.00
freq.    1507.05  E(vib)   ...       0.00
freq.    1525.02  E(vib)   ...       0.00
freq.    1535.04  E(vib)   ...       0.00
freq.    1542.74  E(vib)   ...       0.00
freq.    1638.27  E(vib)   ...       0.00
freq.    1643.97  E(vib)   ...       0.00
freq.    1661.19  E(vib)   ...       0.00
freq.    1693.57  E(vib)   ...       0.00
freq.    1789.15  E(vib)   ...       0.00
freq.    2976.70  E(vib)   ...       0.00
freq.    3000.53  E(vib)   ...       0.00
freq.    3036.71  E(vib)   ...       0.00
freq.    3060.62  E(vib)   ...       0.00
freq.    3065.38  E(vib)   ...       0.00
freq.    3077.22  E(vib)   ...       0.00
freq.    3092.59  E(vib)   ...       0.00
freq.    3103.05  E(vib)   ...       0.00
freq.    3107.90  E(vib)   ...       0.00
freq.    3116.78  E(vib)   ...       0.00
freq.    3127.58  E(vib)   ...       0.00
freq.    3161.89  E(vib)   ...       0.00
freq.    3165.13  E(vib)   ...       0.00
freq.    3191.62  E(vib)   ...       0.00
freq.    3195.64  E(vib)   ...       0.00
freq.    3208.26  E(vib)   ...       0.00
freq.    3221.43  E(vib)   ...       0.00
freq.    3232.58  E(vib)   ...       0.00
freq.    3238.35  E(vib)   ...       0.00
freq.    3238.49  E(vib)   ...       0.00
freq.    3242.66  E(vib)   ...       0.00
freq.    3249.65  E(vib)   ...       0.00
freq.    3292.68  E(vib)   ...       0.00

Rotational constants in cm-1:     0.007841     0.006122     0.005880

                             ****ORCA TERMINATED NORMALLY****
TOTAL RUN TIME: 0 days 2 hours 46 minutes 16 seconds 850 msec
