                         Program Version 5.0.4 -  RELEASE  -
|  1> %pal nprocs 24 end
|  2> ! PBE0 D3BJ def2-TZVP TightSCF OPT FREQ TightOpt
|  3> ! CPCM(dmso)
|  4> %scf
|  5> MaxIter 800
|  6> end
|  7>
|  8> %geom
|  9> MaxIter 800
| 10> MaxStep 0.15
| 11> end
| 12>
| 13> *xyz 0 1
| 14> C       1.71645000      3.38080300      2.79514200
| 15> C       2.64158600      2.35353700      2.59992600
| 16> C       2.42075000      1.43615500      1.59286000
| 17> N       1.32972500      1.53096400      0.80612700
| 18> C       0.41865200      2.51286000      0.97456300
| 19> C       0.59823500      3.45821500      1.97093000
| 20> C       1.07592100      0.49790600     -0.19919800
| 21> C       0.85654000      1.15024400     -1.55818500
| 22> O       1.02387200      2.32345800     -1.78228900
| 23> O       0.63783000      0.23372600     -2.48046900
| 24> C       0.41372300      0.70176000     -3.80434900
| 25> H       1.87202300      4.11740000      3.58657500
| 26> H       3.09602700      0.60404000      1.38760400
| 27> H      -0.40836500      2.52661300      0.25797900
| 28> H      -0.14442600      4.24801100      2.08974900
| 29> H       2.00831700     -0.07580800     -0.30599600
| 30> H       0.26774000     -0.19167600     -4.42125600
| 31> H       1.27681400      1.27843800     -4.16544800
| 32> H       3.53277400      2.25773100      3.22108400
| 33> C      -1.23907800      0.05285100      0.88178100
| 34> C       0.03352700     -0.51812900      0.34919300
| 35> C      -0.14483800     -1.70859300     -0.57541900
| 36> C      -1.33185600     -1.95767500     -1.25846300
| 37> C      -1.47180400     -3.07575700     -2.08201300
| 38> C      -0.40581200     -3.96005600     -2.22365500
| 39> C       0.79314000     -3.73811600     -1.54417600
| 40> C       0.92407800     -2.61536600     -0.72147400
| 41> O       2.04503500     -2.31830600     -0.02549000
| 42> C       3.14607600     -3.19571800     -0.08474800
| 43> N      -2.02621900      0.87294500      0.18262100
| 44> O      -3.14377200      1.22807300      0.63138400
| 45> H       0.53770500     -0.92288800      1.24200200
| 46> H      -2.16165400     -1.25715500     -1.14852700
| 47> H      -2.41177000     -3.25197900     -2.60978300
| 48> H      -0.50033500     -4.83978900     -2.86538900
| 49> H       1.61773100     -4.44236000     -1.65856500
| 50> H       2.87914300     -4.19925700      0.28533200
| 51> H       3.92103100     -2.76615400      0.56160100
| 52> H       3.53746300     -3.28226600     -1.11169100
| 53> O      -1.59910900      1.33922300     -0.92762500
| 54> H      -0.48536200      1.33358300     -3.83443700
| 55> N      -1.65385200     -0.49111300      2.09360700
| 56> N      -2.71516100     -0.25858600      2.64665500
| 57> N      -3.63319000     -0.17666900      3.31435600
| 58> *
| 59>
| 60>                          ****END OF INPUT****
 Total Charge           Charge          ....    0
 Multiplicity           Mult            ....    1
 Number of Electrons    NEL             ....  194
Dispersion correction           -0.057437806
FINAL SINGLE POINT ENERGY     -1306.826111959890
Dispersion correction            ... done
Dispersion correction           -0.057219334
FINAL SINGLE POINT ENERGY     -1306.827623614487
Dispersion correction            ... done
Dispersion correction           -0.057719558
FINAL SINGLE POINT ENERGY     -1306.826332889727
Dispersion correction            ... done
FINAL SINGLE POINT ENERGY     -1306.828234042027
FINAL SINGLE POINT ENERGY     -1306.828121575179
FINAL SINGLE POINT ENERGY     -1306.828365221141
FINAL SINGLE POINT ENERGY     -1306.828343975590
FINAL SINGLE POINT ENERGY     -1306.828373278582
Dispersion correction           -0.057514185
FINAL SINGLE POINT ENERGY     -1306.828374867348
Dispersion correction            ... done
Dispersion correction           -0.057521372
FINAL SINGLE POINT ENERGY     -1306.828375421541
Dispersion correction            ... done
                    ***********************HURRAY********************

CARTESIAN COORDINATES (ANGSTROEM)
---------------------------------
  C      1.648950    3.344028    2.822457
  C      2.571562    2.323493    2.634693
  C      2.371911    1.422769    1.618116
  N      1.301443    1.527261    0.812777
  C      0.395675    2.507254    0.973817
  C      0.554057    3.434200    1.979759
  C      1.066298    0.498661   -0.201920
  C      0.872047    1.148784   -1.563900
  O      1.035931    2.322464   -1.783146
  O      0.682259    0.228840   -2.487861
  C      0.528731    0.704062   -3.827785
  H      1.787293    4.063802    3.619983
  H      3.043891    0.599070    1.418574
  H     -0.413168    2.531944    0.254569
  H     -0.183094    4.217601    2.090947
  H      1.997598   -0.064000   -0.294480
  H      0.370441   -0.183237   -4.435008
  H      1.426732    1.231573   -4.149232
  H      3.442325    2.219187    3.267201
  C     -1.251054    0.055656    0.858607
  C      0.023439   -0.519583    0.339707
  C     -0.154187   -1.719011   -0.569254
  C     -1.353961   -1.998984   -1.201327
  C     -1.504128   -3.121563   -2.005181
  C     -0.433791   -3.982715   -2.178067
  C      0.777006   -3.734489   -1.544534
  C      0.915779   -2.609729   -0.739484
  O      2.055004   -2.299645   -0.076771
  C      3.164985   -3.168868   -0.203703
  N     -2.037509    0.855754    0.160851
  O     -3.155041    1.237486    0.624036
  H      0.520480   -0.907187    1.235973
  H     -2.187898   -1.321186   -1.067197
  H     -2.452677   -3.317488   -2.490713
  H     -0.533257   -4.862392   -2.803995
  H      1.602700   -4.420329   -1.678176
  H      2.924265   -4.170262    0.163622
  H      3.955627   -2.737202    0.406436
  H      3.498195   -3.232360   -1.243282
  O     -1.636257    1.285550   -0.978216
  H     -0.333231    1.368275   -3.891940
  N     -1.611959   -0.433682    2.111803
  N     -2.637688   -0.135259    2.700848
  N     -3.510421    0.006576    3.402823

 Multiplicity           Mult            ....    1
 Number of Electrons    NEL             ....  194
 Basis Dimension        Dim             ....  939

ORBITAL ENERGIES
----------------

  NO   OCC          E(Eh)            E(eV)
   0   2.0000     -19.263364      -524.1828
   1   2.0000     -19.248039      -523.7658
   2   2.0000     -19.203642      -522.5577
   3   2.0000     -19.177866      -521.8563
   4   2.0000     -19.176108      -521.8084
   5   2.0000     -14.555120      -396.0650
   6   2.0000     -14.554917      -396.0594
   7   2.0000     -14.511218      -394.8703
   8   2.0000     -14.443235      -393.0204
   9   2.0000     -14.441556      -392.9747
  10   2.0000     -10.368438      -282.1395
  11   2.0000     -10.312174      -280.6085
  12   2.0000     -10.307325      -280.4766
  13   2.0000     -10.306771      -280.4615
  14   2.0000     -10.289642      -279.9954
  15   2.0000     -10.288652      -279.9684
  16   2.0000     -10.277586      -279.6673
  17   2.0000     -10.270814      -279.4831
  18   2.0000     -10.269777      -279.4549
  19   2.0000     -10.267752      -279.3997
  20   2.0000     -10.266265      -279.3593
  21   2.0000     -10.265003      -279.3249
  22   2.0000     -10.240468      -278.6573
  23   2.0000     -10.227894      -278.3152
  24   2.0000     -10.226553      -278.2786
  25   2.0000     -10.224947      -278.2349
  26   2.0000     -10.219744      -278.0934
  27   2.0000      -1.193577       -32.4789
  28   2.0000      -1.173022       -31.9195
  29   2.0000      -1.157503       -31.4973
  30   2.0000      -1.109694       -30.1963
  31   2.0000      -1.083369       -29.4800
  32   2.0000      -1.060833       -28.8667
  33   2.0000      -1.022334       -27.8191
  34   2.0000      -1.004653       -27.3380
  35   2.0000      -0.907212       -24.6865
  36   2.0000      -0.889442       -24.2030
  37   2.0000      -0.863786       -23.5048
  38   2.0000      -0.843202       -22.9447
  39   2.0000      -0.823526       -22.4093
  40   2.0000      -0.792027       -21.5521
  41   2.0000      -0.776634       -21.1333
  42   2.0000      -0.756122       -20.5751
  43   2.0000      -0.732681       -19.9373
  44   2.0000      -0.716041       -19.4845
  45   2.0000      -0.713836       -19.4245
  46   2.0000      -0.691913       -18.8279
  47   2.0000      -0.671987       -18.2857
  48   2.0000      -0.625931       -17.0325
  49   2.0000      -0.618740       -16.8368
  50   2.0000      -0.609847       -16.5948
  51   2.0000      -0.578977       -15.7548
  52   2.0000      -0.567823       -15.4512
  53   2.0000      -0.561179       -15.2705
  54   2.0000      -0.558411       -15.1951
  55   2.0000      -0.546290       -14.8653
  56   2.0000      -0.542727       -14.7684
  57   2.0000      -0.536506       -14.5991
  58   2.0000      -0.523219       -14.2375
  59   2.0000      -0.515230       -14.0201
  60   2.0000      -0.513654       -13.9772
  61   2.0000      -0.510181       -13.8827
  62   2.0000      -0.504478       -13.7275
  63   2.0000      -0.497165       -13.5285
  64   2.0000      -0.495124       -13.4730
  65   2.0000      -0.489432       -13.3181
  66   2.0000      -0.483913       -13.1679
  67   2.0000      -0.480810       -13.0835
  68   2.0000      -0.477325       -12.9887
  69   2.0000      -0.469902       -12.7867
  70   2.0000      -0.455747       -12.4015
  71   2.0000      -0.450458       -12.2576
  72   2.0000      -0.441124       -12.0036
  73   2.0000      -0.433708       -11.8018
  74   2.0000      -0.430038       -11.7019
  75   2.0000      -0.418148       -11.3784
  76   2.0000      -0.414398       -11.2763
  77   2.0000      -0.410334       -11.1657
  78   2.0000      -0.399203       -10.8629
  79   2.0000      -0.392733       -10.6868
  80   2.0000      -0.384109       -10.4521
  81   2.0000      -0.375315       -10.2128
  82   2.0000      -0.367810       -10.0086
  83   2.0000      -0.348790        -9.4910
  84   2.0000      -0.345336        -9.3971
  85   2.0000      -0.342417        -9.3176
  86   2.0000      -0.339186        -9.2297
  87   2.0000      -0.332238        -9.0407
  88   2.0000      -0.326417        -8.8823
  89   2.0000      -0.320388        -8.7182
  90   2.0000      -0.306832        -8.3493
  91   2.0000      -0.295127        -8.0308
  92   2.0000      -0.286975        -7.8090
  93   2.0000      -0.267761        -7.2861
  94   2.0000      -0.264840        -7.2067
  95   2.0000      -0.239985        -6.5303
  96   2.0000      -0.196866        -5.3570
  97   0.0000      -0.084077        -2.2879
  98   0.0000      -0.046166        -1.2563
  99   0.0000      -0.022186        -0.6037
 100   0.0000      -0.020169        -0.5488
 101   0.0000      -0.009358        -0.2547

MULLIKEN ATOMIC CHARGES
-----------------------
   0 C :   -0.083292
   1 C :   -0.132349
   2 C :   -0.037939
   3 N :    0.198176
   4 C :    0.016047
   5 C :   -0.155451
   6 C :   -0.174383
   7 C :    0.323163
   8 O :   -0.383363
   9 O :   -0.204867
  10 C :   -0.271859
  11 H :    0.188319
  12 H :    0.207901
  13 H :    0.176832
  14 H :    0.189825
  15 H :    0.188494
  16 H :    0.162446
  17 H :    0.155406
  18 H :    0.192282
  19 C :   -0.183145
  20 C :    0.366537
  21 C :   -0.081256
  22 C :   -0.192002
  23 C :   -0.215325
  24 C :   -0.142854
  25 C :   -0.310300
  26 C :    0.276459
  27 O :   -0.265626
  28 C :   -0.292105
  29 N :    0.457596
  30 O :   -0.576257
  31 H :    0.099901
  32 H :    0.152126
  33 H :    0.145192
  34 H :    0.150771
  35 H :    0.162959
  36 H :    0.154590
  37 H :    0.163759
  38 H :    0.152554
  39 O :   -0.550091
  40 H :    0.154430
  41 N :   -0.276116
  42 N :    0.391137
  43 N :   -0.298321
Sum of atomic charges:   -0.0000000

LOEWDIN ATOMIC CHARGES
----------------------
   0 C :   -0.055012
   1 C :   -0.100563
   2 C :   -0.075267
   3 N :    0.341037
   4 C :   -0.081057
   5 C :   -0.100378
   6 C :   -0.147391
   7 C :   -0.498140
   8 O :    0.090367
   9 O :    0.291649
  10 C :   -0.300480
  11 H :    0.171911
  12 H :    0.176834
  13 H :    0.171111
  14 H :    0.173380
  15 H :    0.192574
  16 H :    0.123109
  17 H :    0.119841
  18 H :    0.173692
  19 C :   -0.345049
  20 C :   -0.159599
  21 C :   -0.100862
  22 C :   -0.110098
  23 C :   -0.166918
  24 C :   -0.148625
  25 C :   -0.143054
  26 C :   -0.231539
  27 O :    0.246634
  28 C :   -0.324491
  29 N :   -0.078398
  30 O :   -0.245585
  31 H :    0.197188
  32 H :    0.161316
  33 H :    0.151544
  34 H :    0.153800
  35 H :    0.159891
  36 H :    0.118609
  37 H :    0.122022
  38 H :    0.117749
  39 O :   -0.222714
  40 H :    0.119947
  41 N :    0.041109
  42 N :    0.084161
  43 N :   -0.064257

  Mayer bond orders larger than 0.100000
B(  0-C ,  1-C ) :   1.3941 B(  0-C ,  5-C ) :   1.4243 B(  0-C , 11-H ) :   0.9421
B(  1-C ,  2-C ) :   1.4595 B(  1-C , 18-H ) :   0.9438 B(  2-C ,  3-N ) :   1.2785
B(  2-C , 12-H ) :   0.9307 B(  3-N ,  4-C ) :   1.2676 B(  3-N ,  6-C ) :   0.8764
B(  4-C ,  5-C ) :   1.4503 B(  4-C , 13-H ) :   0.8956 B(  5-C , 14-H ) :   0.9449
B(  6-C ,  7-C ) :   1.0134 B(  6-C , 15-H ) :   0.9000 B(  6-C , 20-C ) :   0.8258
B(  7-C ,  8-O ) :   1.9847 B(  7-C ,  9-O ) :   1.2612 B(  9-O , 10-C ) :   0.8909
B( 10-C , 16-H ) :   0.9646 B( 10-C , 17-H ) :   0.9652 B( 10-C , 40-H ) :   0.9675
B( 19-C , 20-C ) :   0.9018 B( 19-C , 29-N ) :   1.4709 B( 19-C , 30-O ) :   0.2236
B( 19-C , 39-O ) :   0.1093 B( 19-C , 41-N ) :   1.1314 B( 20-C , 21-C ) :   0.9791
B( 20-C , 31-H ) :   0.8906 B( 21-C , 22-C ) :   1.3809 B( 21-C , 26-C ) :   1.2932
B( 22-C , 23-C ) :   1.3990 B( 22-C , 32-H ) :   0.9750 B( 23-C , 24-C ) :   1.4018
B( 23-C , 33-H ) :   0.9853 B( 24-C , 25-C ) :   1.3912 B( 24-C , 34-H ) :   0.9679
B( 25-C , 26-C ) :   1.3758 B( 25-C , 35-H ) :   0.9630 B( 26-C , 27-O ) :   1.0964
B( 27-O , 28-C ) :   0.9361 B( 28-C , 36-H ) :   0.9613 B( 28-C , 37-H ) :   0.9653
B( 28-C , 38-H ) :   0.9620 B( 29-N , 30-O ) :   1.2541 B( 29-N , 39-O ) :   1.1976
B( 41-N , 42-N ) :   1.5078 B( 41-N , 43-N ) :   0.3217 B( 42-N , 43-N ) :   1.9118

Dispersion correction           -0.057526869
FINAL SINGLE POINT ENERGY     -1306.828373812212

DIPOLE MOMENT
-------------
                                X             Y             Z
Electronic contribution:     -9.75283       7.69670      10.68635
Nuclear contribution   :     17.01412      -8.19556      -9.45823
                        -----------------------------------------
Total Dipole Moment    :      7.26130      -0.49887       1.22811
                        -----------------------------------------
Magnitude (a.u.)       :      7.38130
Magnitude (Debye)      :     18.76177

Dispersion correction in the Hessian             ... done   (      0.6 sec)

VIBRATIONAL FREQUENCIES
-----------------------

Scaling factor for frequencies =  1.000000000  (already applied!)

   0:         0.00 cm**-1
   1:         0.00 cm**-1
   2:         0.00 cm**-1
   3:         0.00 cm**-1
   4:         0.00 cm**-1
   5:         0.00 cm**-1
   6:         7.21 cm**-1
   7:        25.59 cm**-1
   8:        40.36 cm**-1
   9:        46.72 cm**-1
  10:        57.89 cm**-1
  11:        70.01 cm**-1
  12:        80.35 cm**-1
  13:        87.22 cm**-1
  14:        96.03 cm**-1
  15:       100.16 cm**-1
  16:       110.14 cm**-1
  17:       132.30 cm**-1
  18:       144.35 cm**-1
  19:       163.88 cm**-1
  20:       172.67 cm**-1
  21:       179.82 cm**-1
  22:       191.50 cm**-1
  23:       202.53 cm**-1
  24:       222.18 cm**-1
  25:       248.39 cm**-1
  26:       252.94 cm**-1
  27:       272.80 cm**-1
  28:       296.40 cm**-1
  29:       304.91 cm**-1
  30:       312.08 cm**-1
  31:       363.10 cm**-1
  32:       370.31 cm**-1
  33:       406.21 cm**-1
  34:       427.02 cm**-1
  35:       463.63 cm**-1
  36:       478.39 cm**-1
  37:       500.61 cm**-1
  38:       518.57 cm**-1
  39:       529.00 cm**-1
  40:       553.97 cm**-1
  41:       576.23 cm**-1
  42:       587.78 cm**-1
  43:       607.30 cm**-1
  44:       640.26 cm**-1
  45:       659.59 cm**-1
  46:       660.83 cm**-1
  47:       679.36 cm**-1
  48:       711.38 cm**-1
  49:       729.83 cm**-1
  50:       742.52 cm**-1
  51:       756.77 cm**-1
  52:       768.95 cm**-1
  53:       789.62 cm**-1
  54:       809.33 cm**-1
  55:       816.02 cm**-1
  56:       834.46 cm**-1
  57:       857.52 cm**-1
  58:       872.16 cm**-1
  59:       890.37 cm**-1
  60:       926.04 cm**-1
  61:       929.91 cm**-1
  62:       957.18 cm**-1
  63:       988.14 cm**-1
  64:       995.01 cm**-1
  65:      1030.45 cm**-1
  66:      1037.97 cm**-1
  67:      1049.76 cm**-1
  68:      1060.64 cm**-1
  69:      1070.55 cm**-1
  70:      1078.90 cm**-1
  71:      1084.73 cm**-1
  72:      1086.56 cm**-1
  73:      1122.84 cm**-1
  74:      1133.01 cm**-1
  75:      1143.44 cm**-1
  76:      1168.98 cm**-1
  77:      1170.97 cm**-1
  78:      1173.09 cm**-1
  79:      1178.35 cm**-1
  80:      1196.86 cm**-1
  81:      1207.91 cm**-1
  82:      1211.78 cm**-1
  83:      1229.43 cm**-1
  84:      1231.09 cm**-1
  85:      1248.46 cm**-1
  86:      1269.77 cm**-1
  87:      1278.42 cm**-1
  88:      1287.01 cm**-1
  89:      1298.75 cm**-1
  90:      1315.76 cm**-1
  91:      1338.33 cm**-1
  92:      1351.27 cm**-1
  93:      1374.74 cm**-1
  94:      1386.92 cm**-1
  95:      1396.02 cm**-1
  96:      1419.23 cm**-1
  97:      1444.99 cm**-1
  98:      1464.66 cm**-1
  99:      1465.18 cm**-1
 100:      1470.55 cm**-1
 101:      1473.32 cm**-1
 102:      1473.69 cm**-1
 103:      1484.29 cm**-1
 104:      1498.29 cm**-1
 105:      1527.72 cm**-1
 106:      1533.38 cm**-1
 107:      1534.91 cm**-1
 108:      1571.94 cm**-1
 109:      1642.73 cm**-1
 110:      1648.80 cm**-1
 111:      1664.45 cm**-1
 112:      1696.53 cm**-1
 113:      1786.34 cm**-1
 114:      2261.63 cm**-1
 115:      3038.62 cm**-1
 116:      3061.40 cm**-1
 117:      3073.08 cm**-1
 118:      3110.61 cm**-1
 119:      3111.09 cm**-1
 120:      3157.76 cm**-1
 121:      3166.56 cm**-1
 122:      3189.56 cm**-1
 123:      3192.73 cm**-1
 124:      3205.04 cm**-1
 125:      3206.90 cm**-1
 126:      3220.06 cm**-1
 127:      3222.18 cm**-1
 128:      3230.15 cm**-1
 129:      3238.84 cm**-1
 130:      3243.45 cm**-1
 131:      3250.00 cm**-1

IR SPECTRUM
-----------

 Mode   freq       eps      Int      T**2         TX        TY        TZ
       cm**-1   L/(mol*cm) km/mol    a.u.
----------------------------------------------------------------------------
  6:      7.21   0.000098    0.49  0.004237  ( 0.027943 -0.027867 -0.051768)
  7:     25.59   0.000102    0.52  0.001246  (-0.035262  0.001441  0.000262)
  8:     40.36   0.000533    2.69  0.004124  ( 0.022914 -0.032062  0.050702)
  9:     46.72   0.001385    7.00  0.009251  (-0.070002 -0.063997  0.015984)
 10:     57.89   0.000209    1.06  0.001127  ( 0.004878  0.024968  0.021900)
 11:     70.01   0.001267    6.40  0.005649  (-0.074762 -0.006464  0.004170)
 12:     80.35   0.001717    8.68  0.006670  ( 0.054091 -0.025904 -0.055434)
 13:     87.22   0.000155    0.78  0.000553  ( 0.015296 -0.017850 -0.000689)
 14:     96.03   0.001971    9.96  0.006403  (-0.048456 -0.036221 -0.052379)
 15:    100.16   0.002192   11.08  0.006829  (-0.036021 -0.068682  0.028537)
 16:    110.14   0.000227    1.15  0.000644  (-0.006560 -0.020331  0.013710)
 17:    132.30   0.000680    3.44  0.001604  (-0.013100  0.010681 -0.036306)
 18:    144.35   0.000560    2.83  0.001210  ( 0.019693  0.018004  0.022322)
 19:    163.88   0.000188    0.95  0.000358  (-0.010171  0.002480  0.015746)
 20:    172.67   0.000612    3.09  0.001106  ( 0.031053  0.008362  0.008458)
 21:    179.82   0.004265   21.55  0.007401  (-0.044627  0.029490  0.067377)
 22:    191.50   0.000770    3.89  0.001255  ( 0.011756  0.032488  0.007853)
 23:    202.53   0.001799    9.09  0.002772  ( 0.030276  0.043072 -0.000694)
 24:    222.18   0.002400   12.13  0.003370  ( 0.055587 -0.008260 -0.014570)
 25:    248.39   0.000544    2.75  0.000684  ( 0.021945  0.013279  0.005074)
 26:    252.94   0.001379    6.97  0.001701  (-0.033590 -0.023885 -0.001618)
 27:    272.80   0.004372   22.09  0.005001  (-0.029392 -0.043945 -0.046971)
 28:    296.40   0.001073    5.42  0.001130  ( 0.022878 -0.006853 -0.023650)
 29:    304.91   0.001163    5.88  0.001191  (-0.030491 -0.014482 -0.007158)
 30:    312.08   0.000039    0.20  0.000039  ( 0.001845 -0.005983 -0.000141)
 31:    363.10   0.006158   31.12  0.005292  ( 0.018620  0.016910 -0.068261)
 32:    370.31   0.003235   16.35  0.002726  ( 0.003596  0.019677  0.048225)
 33:    406.21   0.000960    4.85  0.000738  ( 0.003832 -0.017467  0.020443)
 34:    427.02   0.000363    1.84  0.000265  ( 0.011302 -0.000259  0.011731)
 35:    463.63   0.000071    0.36  0.000048  ( 0.006011  0.003299  0.000788)
 36:    478.39   0.000126    0.64  0.000082  ( 0.006925 -0.004267  0.003978)
 37:    500.61   0.001135    5.74  0.000708  (-0.003169 -0.015275 -0.021545)
 38:    518.57   0.001948    9.84  0.001172  ( 0.013566  0.023725 -0.020617)
 39:    529.00   0.001488    7.52  0.000878  ( 0.012713  0.022209  0.014930)
 40:    553.97   0.006007   30.36  0.003384  ( 0.035670  0.015704 -0.043187)
 41:    576.23   0.007798   39.41  0.004223  ( 0.039153 -0.017071 -0.048977)
 42:    587.78   0.006521   32.95  0.003462  (-0.057663 -0.011698 -0.000537)
 43:    607.30   0.002518   12.73  0.001294  ( 0.018808 -0.017039 -0.025496)
 44:    640.26   0.004290   21.68  0.002091  ( 0.001662  0.037879 -0.025558)
 45:    659.59   0.001430    7.23  0.000677  ( 0.025669  0.002531  0.003375)
 46:    660.83   0.001103    5.58  0.000521  (-0.009504 -0.019289  0.007655)
 47:    679.36   0.002655   13.42  0.001219  ( 0.005695  0.029281 -0.018155)
 48:    711.38   0.028830  145.69  0.012647  ( 0.065143  0.079705 -0.045282)
 49:    729.83   0.011981   60.55  0.005123  ( 0.056493  0.002715 -0.043865)
 50:    742.52   0.003350   16.93  0.001408  ( 0.024597  0.002241  0.028250)
 51:    756.77   0.003543   17.90  0.001461  ( 0.009457  0.016144 -0.033331)
 52:    768.95   0.018458   93.28  0.007491  (-0.027837 -0.047059  0.067093)
 53:    789.62   0.001793    9.06  0.000708  ( 0.016305 -0.017434  0.011776)
 54:    809.33   0.004052   20.48  0.001562  (-0.032494 -0.016270  0.015549)
 55:    816.02   0.023018  116.32  0.008803  ( 0.046721 -0.003521 -0.081286)
 56:    834.46   0.003643   18.41  0.001362  ( 0.019919  0.004867 -0.030691)
 57:    857.52   0.004244   21.45  0.001545  (-0.026441 -0.028091 -0.007510)
 58:    872.16   0.000196    0.99  0.000070  (-0.000131  0.006989 -0.004623)
 59:    890.37   0.000413    2.09  0.000145  (-0.001442 -0.008664  0.008225)
 60:    926.04   0.004152   20.98  0.001399  ( 0.020979 -0.030846  0.002719)
 61:    929.91   0.012406   62.70  0.004163  (-0.054798  0.033351  0.006945)
 62:    957.18   0.000310    1.57  0.000101  (-0.009307  0.000480  0.003768)
 63:    988.14   0.000155    0.78  0.000049  ( 0.003553 -0.004147  0.004381)
 64:    995.01   0.000545    2.75  0.000171  ( 0.003035 -0.004197  0.012003)
 65:   1030.45   0.001377    6.96  0.000417  ( 0.019608 -0.005614 -0.001036)
 66:   1037.97   0.008094   40.90  0.002433  (-0.006071 -0.005059  0.048692)
 67:   1049.76   0.000653    3.30  0.000194  (-0.010493 -0.001727 -0.009004)
 68:   1060.64   0.003831   19.36  0.001127  ( 0.014385  0.017916 -0.024480)
 69:   1070.55   0.012542   63.38  0.003656  (-0.038610  0.042469  0.019015)
 70:   1078.90   0.011830   59.78  0.003422  (-0.039895  0.026541 -0.033552)
 71:   1084.73   0.003189   16.11  0.000917  ( 0.025145  0.011071  0.012749)
 72:   1086.56   0.000875    4.42  0.000251  (-0.003318 -0.012595 -0.009031)
 73:   1122.84   0.032455  164.02  0.009020  ( 0.029225 -0.062670  0.065103)
 74:   1133.01   0.006947   35.11  0.001913  ( 0.005405  0.003717 -0.043248)
 75:   1143.44   0.035069  177.22  0.009571  ( 0.055216 -0.050025  0.063400)
 76:   1168.98   0.000338    1.71  0.000090  ( 0.008716 -0.002522 -0.002798)
 77:   1170.97   0.000094    0.47  0.000025  ( 0.000265  0.002707 -0.004201)
 78:   1173.09   0.001744    8.81  0.000464  (-0.015129  0.014468  0.005073)
 79:   1178.35   0.002210   11.17  0.000585  (-0.023275  0.002460 -0.006125)
 80:   1196.86   0.002267   11.46  0.000591  ( 0.010688 -0.020640  0.007130)
 81:   1207.91   0.001458    7.37  0.000377  ( 0.004928 -0.015831 -0.010094)
 82:   1211.78   0.002050   10.36  0.000528  ( 0.021396 -0.000514  0.008360)
 83:   1229.43   0.002856   14.43  0.000725  ( 0.011373 -0.004411 -0.024002)
 84:   1231.09   0.013178   66.60  0.003340  (-0.030239 -0.025071 -0.042397)
 85:   1248.46   0.026175  132.28  0.006543  (-0.033148  0.073525  0.006176)
 86:   1269.77   0.011506   58.15  0.002828  ( 0.019205 -0.015145 -0.047219)
 87:   1278.42   0.100326  507.01  0.024490  ( 0.069967  0.018801  0.138712)
 88:   1287.01   0.008923   45.09  0.002164  (-0.042686  0.014319 -0.011680)
 89:   1298.75   0.055998  282.99  0.013455  ( 0.112758 -0.008765 -0.025769)
 90:   1315.76   0.016309   82.42  0.003868  (-0.005227 -0.020770 -0.058390)
 91:   1338.33   0.077820  393.27  0.018145  ( 0.095232  0.011561 -0.094566)
 92:   1351.27   0.030118  152.21  0.006956  (-0.033674  0.021490  0.073210)
 93:   1374.74   0.000207    1.05  0.000047  ( 0.004220 -0.005389 -0.000485)
 94:   1386.92   0.008730   44.12  0.001964  (-0.037359  0.015890 -0.017778)
 95:   1396.02   0.006700   33.86  0.001498  (-0.008826 -0.003462  0.037521)
 96:   1419.23   0.018784   94.93  0.004130  (-0.037948 -0.002337 -0.051814)
 97:   1444.99   0.032749  165.50  0.007073  (-0.015887 -0.036025  0.074312)
 98:   1464.66   0.009740   49.22  0.002075  (-0.035667  0.002710 -0.028210)
 99:   1465.18   0.002814   14.22  0.000599  ( 0.023261 -0.002370 -0.007250)
100:   1470.55   0.017244   87.15  0.003659  ( 0.009242 -0.004415  0.059620)
101:   1473.32   0.003137   15.85  0.000665  ( 0.001686  0.024354  0.008280)
102:   1473.69   0.003088   15.60  0.000654  ( 0.007746  0.013257 -0.020448)
103:   1484.29   0.005243   26.50  0.001102  (-0.028327 -0.007740 -0.015491)
104:   1498.29   0.014670   74.14  0.003056  (-0.050324  0.006470 -0.021935)
105:   1527.72   0.018458   93.28  0.003770  ( 0.054534 -0.024414  0.014153)
106:   1533.38   0.023465  118.58  0.004775  ( 0.063081 -0.016154  0.023137)
107:   1534.91   0.022379  113.09  0.004550  ( 0.050827  0.024092  0.037229)
108:   1571.94   0.080244  405.52  0.015930  (-0.061096  0.060113 -0.092649)
109:   1642.73   0.003224   16.29  0.000612  (-0.024512 -0.001769 -0.002908)
110:   1648.80   0.004722   23.86  0.000894  ( 0.025275 -0.014438 -0.006810)
111:   1664.45   0.012228   61.79  0.002293  (-0.044273 -0.005191 -0.017477)
112:   1696.53   0.019329   97.68  0.003555  (-0.012102 -0.038910 -0.043531)
113:   1786.34   0.110769  559.78  0.019351  ( 0.034847  0.134558  0.005521)
114:   2261.63   0.356947  1803.86  0.049252  (-0.155903 -0.006901  0.157793)
115:   3038.62   0.012949   65.44  0.001330  (-0.029530  0.021321  0.001805)
116:   3061.40   0.000529    2.67  0.000054  ( 0.003868  0.001460  0.006071)
117:   3073.08   0.006419   32.44  0.000652  ( 0.001334 -0.006430  0.024672)
118:   3110.61   0.008779   44.37  0.000881  ( 0.005938  0.018495 -0.022437)
119:   3111.09   0.002725   13.77  0.000273  ( 0.008431 -0.014187  0.000995)
120:   3157.76   0.003646   18.43  0.000360  (-0.018651  0.001334  0.003272)
121:   3166.56   0.003704   18.72  0.000365  ( 0.013340  0.008273  0.010894)
122:   3189.56   0.002123   10.73  0.000208  (-0.001586 -0.012811 -0.006413)
123:   3192.73   0.000492    2.49  0.000048  (-0.001954  0.005789  0.003286)
124:   3205.04   0.015540   78.53  0.001513  (-0.028580 -0.017156 -0.020048)
125:   3206.90   0.001944    9.82  0.000189  (-0.005025 -0.009359 -0.008735)
126:   3220.06   0.002575   13.01  0.000250  (-0.014453 -0.002210 -0.005982)
127:   3222.18   0.000078    0.40  0.000008  ( 0.002701 -0.000505  0.000215)
128:   3230.15   0.000468    2.37  0.000045  (-0.003579  0.005408  0.001782)
129:   3238.84   0.000940    4.75  0.000091  ( 0.000352 -0.008170 -0.004864)
130:   3243.45   0.000876    4.43  0.000084  (-0.007871  0.004719  0.000207)
131:   3250.00   0.001105    5.58  0.000106  (-0.008236  0.005534 -0.002757)

--------------------------
THERMOCHEMISTRY AT 298.15K
--------------------------

Temperature         ... 298.15 K
Pressure            ... 1.00 atm
Total Mass          ... 371.35 AMU

Throughout the following assumptions are being made:
  (1) The electronic state is orbitally nondegenerate
  (2) There are no thermally accessible electronically excited states
  (3) Hindered rotations indicated by low frequency modes are not
      treated as such but are treated as vibrations and this may
      cause some error
  (4) All equations used are the standard statistical mechanics
      equations for an ideal gas
  (5) All vibrations are strictly harmonic

freq.       7.21  E(vib)   ...       0.58
freq.      25.59  E(vib)   ...       0.56
freq.      40.36  E(vib)   ...       0.54
freq.      46.72  E(vib)   ...       0.53
freq.      57.89  E(vib)   ...       0.51
freq.      70.01  E(vib)   ...       0.50
freq.      80.35  E(vib)   ...       0.49
freq.      87.22  E(vib)   ...       0.48
freq.      96.03  E(vib)   ...       0.47
freq.     100.16  E(vib)   ...       0.46
freq.     110.14  E(vib)   ...       0.45
freq.     132.30  E(vib)   ...       0.42
freq.     144.35  E(vib)   ...       0.41
freq.     163.88  E(vib)   ...       0.39
freq.     172.67  E(vib)   ...       0.38
freq.     179.82  E(vib)   ...       0.37
freq.     191.50  E(vib)   ...       0.36
freq.     202.53  E(vib)   ...       0.35
freq.     222.18  E(vib)   ...       0.33
freq.     248.39  E(vib)   ...       0.31
freq.     252.94  E(vib)   ...       0.30
freq.     272.80  E(vib)   ...       0.29
freq.     296.40  E(vib)   ...       0.27
freq.     304.91  E(vib)   ...       0.26
freq.     312.08  E(vib)   ...       0.25
freq.     363.10  E(vib)   ...       0.22
freq.     370.31  E(vib)   ...       0.21
freq.     406.21  E(vib)   ...       0.19
freq.     427.02  E(vib)   ...       0.18
freq.     463.63  E(vib)   ...       0.16
freq.     478.39  E(vib)   ...       0.15
freq.     500.61  E(vib)   ...       0.14
freq.     518.57  E(vib)   ...       0.13
freq.     529.00  E(vib)   ...       0.13
freq.     553.97  E(vib)   ...       0.12
freq.     576.23  E(vib)   ...       0.11
freq.     587.78  E(vib)   ...       0.10
freq.     607.30  E(vib)   ...       0.10
freq.     640.26  E(vib)   ...       0.09
freq.     659.59  E(vib)   ...       0.08
freq.     660.83  E(vib)   ...       0.08
freq.     679.36  E(vib)   ...       0.08
freq.     711.38  E(vib)   ...       0.07
freq.     729.83  E(vib)   ...       0.06
freq.     742.52  E(vib)   ...       0.06
freq.     756.77  E(vib)   ...       0.06
freq.     768.95  E(vib)   ...       0.06
freq.     789.62  E(vib)   ...       0.05
freq.     809.33  E(vib)   ...       0.05
freq.     816.02  E(vib)   ...       0.05
freq.     834.46  E(vib)   ...       0.04
freq.     857.52  E(vib)   ...       0.04
freq.     872.16  E(vib)   ...       0.04
freq.     890.37  E(vib)   ...       0.04
freq.     926.04  E(vib)   ...       0.03
freq.     929.91  E(vib)   ...       0.03
freq.     957.18  E(vib)   ...       0.03
freq.     988.14  E(vib)   ...       0.02
freq.     995.01  E(vib)   ...       0.02
freq.    1030.45  E(vib)   ...       0.02
freq.    1037.97  E(vib)   ...       0.02
freq.    1049.76  E(vib)   ...       0.02
freq.    1060.64  E(vib)   ...       0.02
freq.    1070.55  E(vib)   ...       0.02
freq.    1078.90  E(vib)   ...       0.02
freq.    1084.73  E(vib)   ...       0.02
freq.    1086.56  E(vib)   ...       0.02
freq.    1122.84  E(vib)   ...       0.01
freq.    1133.01  E(vib)   ...       0.01
freq.    1143.44  E(vib)   ...       0.01
freq.    1168.98  E(vib)   ...       0.01
freq.    1170.97  E(vib)   ...       0.01
freq.    1173.09  E(vib)   ...       0.01
freq.    1178.35  E(vib)   ...       0.01
freq.    1196.86  E(vib)   ...       0.01
freq.    1207.91  E(vib)   ...       0.01
freq.    1211.78  E(vib)   ...       0.01
freq.    1229.43  E(vib)   ...       0.01
freq.    1231.09  E(vib)   ...       0.01
freq.    1248.46  E(vib)   ...       0.01
freq.    1269.77  E(vib)   ...       0.01
freq.    1278.42  E(vib)   ...       0.01
freq.    1287.01  E(vib)   ...       0.01
freq.    1298.75  E(vib)   ...       0.01
freq.    1315.76  E(vib)   ...       0.01
freq.    1338.33  E(vib)   ...       0.01
freq.    1351.27  E(vib)   ...       0.01
freq.    1374.74  E(vib)   ...       0.01
freq.    1386.92  E(vib)   ...       0.00
freq.    1396.02  E(vib)   ...       0.00
freq.    1419.23  E(vib)   ...       0.00
freq.    1444.99  E(vib)   ...       0.00
freq.    1464.66  E(vib)   ...       0.00
freq.    1465.18  E(vib)   ...       0.00
freq.    1470.55  E(vib)   ...       0.00
freq.    1473.32  E(vib)   ...       0.00
freq.    1473.69  E(vib)   ...       0.00
freq.    1484.29  E(vib)   ...       0.00
freq.    1498.29  E(vib)   ...       0.00
freq.    1527.72  E(vib)   ...       0.00
freq.    1533.38  E(vib)   ...       0.00
freq.    1534.91  E(vib)   ...       0.00
freq.    1571.94  E(vib)   ...       0.00
freq.    1642.73  E(vib)   ...       0.00
freq.    1648.80  E(vib)   ...       0.00
freq.    1664.45  E(vib)   ...       0.00
freq.    1696.53  E(vib)   ...       0.00
freq.    1786.34  E(vib)   ...       0.00
freq.    2261.63  E(vib)   ...       0.00
freq.    3038.62  E(vib)   ...       0.00
freq.    3061.40  E(vib)   ...       0.00
freq.    3073.08  E(vib)   ...       0.00
freq.    3110.61  E(vib)   ...       0.00
freq.    3111.09  E(vib)   ...       0.00
freq.    3157.76  E(vib)   ...       0.00
freq.    3166.56  E(vib)   ...       0.00
freq.    3189.56  E(vib)   ...       0.00
freq.    3192.73  E(vib)   ...       0.00
freq.    3205.04  E(vib)   ...       0.00
freq.    3206.90  E(vib)   ...       0.00
freq.    3220.06  E(vib)   ...       0.00
freq.    3222.18  E(vib)   ...       0.00
freq.    3230.15  E(vib)   ...       0.00
freq.    3238.84  E(vib)   ...       0.00
freq.    3243.45  E(vib)   ...       0.00
freq.    3250.00  E(vib)   ...       0.00

------------
INNER ENERGY
------------

The inner energy is: U= E(el) + E(ZPE) + E(vib) + E(rot) + E(trans)
    E(el)   - is the total energy from the electronic structure calculation
              = E(kin-el) + E(nuc-el) + E(el-el) + E(nuc-nuc)
    E(ZPE)  - the the zero temperature vibrational energy from the frequency calculation
    E(vib)  - the the finite temperature correction to E(ZPE) due to population
              of excited vibrational states
    E(rot)  - is the rotational thermal energy
    E(trans)- is the translational thermal energy

Summary of contributions to the inner energy U:
Electronic energy                ...  -1306.82837381 Eh
Zero point energy                ...      0.33810112 Eh     212.16 kcal/mol
Thermal vibrational correction   ...      0.02175742 Eh      13.65 kcal/mol

Rotational constants in cm-1:     0.008295     0.005933     0.005117

                             ****ORCA TERMINATED NORMALLY****
TOTAL RUN TIME: 0 days 1 hours 31 minutes 48 seconds 8 msec
