                         Program Version 5.0.4 -  RELEASE  -
|  1> %pal nprocs 24 end
|  2> %maxcore 3500
|  3> !PBE0 D3BJ def2-TZVP TightOpt TightSCF OPTTS FREQ
|  4> !CPCM(dmso)
|  5> %scf
|  6> MaxIter 800
|  7> end
|  8> %geom
|  9> MaxIter 800
| 10> MaxStep 0.2
| 11> inHess Read
| 12> InHessName "TS1_F-preopt.hess"
| 13> end
| 14> *xyz 0 1
| 15>   C     -4.346797    0.081614    0.896799
| 16>   C     -3.564562   -0.038306    2.046853
| 17>   C     -2.238324    0.285983    1.980843
| 18>   N     -1.698812    0.754992    0.836424
| 19>   C     -2.437558    0.895218   -0.290662
| 20>   C     -3.785449    0.569002   -0.263911
| 21>   C     -0.259470    0.779974    0.687628
| 22>   C      0.270307    2.100411    0.165216
| 23>   O     -0.308984    2.848018   -0.581091
| 24>   O      1.486927    2.300408    0.636940
| 25>   C      2.179353    3.451887    0.138120
| 26>   H     -5.396222   -0.185916    0.924227
| 27>   H     -1.560388    0.176035    2.816595
| 28>   H     -1.993772    1.443883   -1.104507
| 29>   H     -4.373366    0.711639   -1.160260
| 30>   H      0.192845    0.596472    1.659075
| 31>   H      3.160195    3.425267    0.604196
| 32>   H      1.645494    4.359804    0.417467
| 33>   C     -0.803337   -0.526441   -1.409739
| 34>   C      0.095117   -0.450997   -0.247254
| 35>   C      1.584278   -0.529228   -0.479334
| 36>   C      2.209756   -0.150418   -1.658047
| 37>   C      3.591142   -0.215077   -1.794683
| 38>   C      4.361831   -0.661885   -0.736014
| 39>   C      3.762747   -1.049224    0.455595
| 40>   C      2.380815   -0.981989    0.586386
| 41>   O      1.719213   -1.325214    1.713894
| 42>   C      2.471794   -1.782519    2.822167
| 43>   N     -1.679388   -1.514758   -1.606532
| 44>   O     -1.920699   -2.330786   -0.669725
| 45>   H     -0.192699   -1.309996    0.360274
| 46>   H      1.614453    0.206049   -2.486986
| 47>   H      4.055716    0.086267   -2.725790
| 48>   H      5.440833   -0.714245   -0.827291
| 49>   H      4.375009   -1.398337    1.276010
| 50>   H      3.028468   -2.690054    2.572795
| 51>   H      1.748916   -2.002402    3.604861
| 52>   H      3.165924   -1.012523    3.170143
| 53>   O     -2.305137   -1.586095   -2.696596
| 54>   H      2.267567    3.391562   -0.946526
| 55>   H     -3.975879   -0.397926    2.979676
| 56>   F     -0.584641    0.266407   -2.477234
| 57>
| 58> **                         ****END OF INPUT****
 Total Charge           Charge          ....    0
 Multiplicity           Mult            ....    1
 Number of Electrons    NEL             ....  182
Dispersion correction           -0.053333248
FINAL SINGLE POINT ENERGY     -1242.525080915129
Dispersion correction            ... done
Dispersion correction           -0.053369945
FINAL SINGLE POINT ENERGY     -1242.525479944049
Dispersion correction            ... done
Dispersion correction           -0.053480495
FINAL SINGLE POINT ENERGY     -1242.525615139618
Dispersion correction            ... done
FINAL SINGLE POINT ENERGY     -1242.525797081098
FINAL SINGLE POINT ENERGY     -1242.525598199468
FINAL SINGLE POINT ENERGY     -1242.525162585245
FINAL SINGLE POINT ENERGY     -1242.524206600591
FINAL SINGLE POINT ENERGY     -1242.523395340998
FINAL SINGLE POINT ENERGY     -1242.522991931508
FINAL SINGLE POINT ENERGY     -1242.522780396272
FINAL SINGLE POINT ENERGY     -1242.522842780284
FINAL SINGLE POINT ENERGY     -1242.523164839312
FINAL SINGLE POINT ENERGY     -1242.523180442395
FINAL SINGLE POINT ENERGY     -1242.523129325866
FINAL SINGLE POINT ENERGY     -1242.523190439328
FINAL SINGLE POINT ENERGY     -1242.523189758341
FINAL SINGLE POINT ENERGY     -1242.523198649308
Dispersion correction           -0.053149235
FINAL SINGLE POINT ENERGY     -1242.523194416299
Dispersion correction            ... done
Dispersion correction           -0.053149778
FINAL SINGLE POINT ENERGY     -1242.523194511560
Dispersion correction            ... done
                    ***********************HURRAY********************

CARTESIAN COORDINATES (ANGSTROEM)
---------------------------------
  C     -4.309624    0.048040    0.743857
  C     -3.640729    0.243502    1.966855
  C     -2.357443    0.691723    1.944881
  N     -1.740939    0.999398    0.776635
  C     -2.355293    0.803122   -0.435801
  C     -3.687508    0.353971   -0.435852
  C     -0.300101    1.042106    0.725262
  C      0.237081    2.277518    0.029746
  O     -0.279475    2.835419   -0.905686
  O      1.374329    2.647994    0.590295
  C      2.062488    3.738061   -0.035894
  H     -5.331173   -0.313222    0.740270
  H     -1.761409    0.826525    2.837717
  H     -1.958434    1.368555   -1.267242
  H     -4.197616    0.258723   -1.385164
  H      0.094950    1.031051    1.739124
  H      2.967403    3.884382    0.547088
  H      1.443241    4.634310   -0.016273
  C     -0.812503   -0.605753   -1.109110
  C      0.109506   -0.314192    0.015287
  C      1.584665   -0.405566   -0.273477
  C      2.193536    0.258772   -1.330712
  C      3.561291    0.172481   -1.550412
  C      4.338881   -0.591837   -0.697247
  C      3.760069   -1.262216    0.371528
  C      2.388827   -1.169214    0.590125
  O      1.758731   -1.778755    1.618105
  C      2.528207   -2.567636    2.506178
  N     -1.543627   -1.763308   -1.138930
  O     -1.837822   -2.311644   -0.057568
  H     -0.133711   -1.065747    0.764515
  H      1.591177    0.861701   -1.998202
  H      4.010485    0.701576   -2.382160
  H      5.408730   -0.670875   -0.854113
  H      4.381570   -1.850832    1.032526
  H      3.009648   -3.397284    1.981100
  H      1.828215   -2.959483    3.241091
  H      3.289042   -1.965364    3.010520
  O     -1.998164   -2.167336   -2.224078
  H      2.308223    3.479529   -1.065999
  H     -4.117028    0.034570    2.914205
  F     -0.484481   -0.156208   -2.332991

 Multiplicity           Mult            ....    1
 Number of Electrons    NEL             ....  182
 Basis Dimension        Dim             ....  877

ORBITAL ENERGIES
----------------

  NO   OCC          E(Eh)            E(eV)
   0   2.0000     -24.791981      -674.6241
   1   2.0000     -19.273480      -524.4580
   2   2.0000     -19.247282      -523.7452
   3   2.0000     -19.214849      -522.8626
   4   2.0000     -19.203707      -522.5594
   5   2.0000     -19.202874      -522.5368
   6   2.0000     -14.586120      -396.9085
   7   2.0000     -14.480924      -394.0460
   8   2.0000     -10.372165      -282.2410
   9   2.0000     -10.334605      -281.2189
  10   2.0000     -10.304424      -280.3976
  11   2.0000     -10.301480      -280.3175
  12   2.0000     -10.294019      -280.1145
  13   2.0000     -10.293547      -280.1017
  14   2.0000     -10.274147      -279.5737
  15   2.0000     -10.268107      -279.4094
  16   2.0000     -10.267396      -279.3901
  17   2.0000     -10.259769      -279.1825
  18   2.0000     -10.248115      -278.8654
  19   2.0000     -10.245401      -278.7915
  20   2.0000     -10.243312      -278.7347
  21   2.0000     -10.231368      -278.4097
  22   2.0000     -10.230780      -278.3937
  23   2.0000     -10.226965      -278.2899
  24   2.0000     -10.222302      -278.1630
  25   2.0000      -1.278294       -34.7841
  26   2.0000      -1.221621       -33.2420
  27   2.0000      -1.164805       -31.6959
  28   2.0000      -1.109990       -30.2044
  29   2.0000      -1.074762       -29.2458
  30   2.0000      -1.057293       -28.7704
  31   2.0000      -1.043790       -28.4030
  32   2.0000      -0.902891       -24.5689
  33   2.0000      -0.882019       -24.0009
  34   2.0000      -0.857621       -23.3370
  35   2.0000      -0.825377       -22.4597
  36   2.0000      -0.817725       -22.2514
  37   2.0000      -0.793893       -21.6029
  38   2.0000      -0.779752       -21.2181
  39   2.0000      -0.756705       -20.5910
  40   2.0000      -0.726199       -19.7609
  41   2.0000      -0.711463       -19.3599
  42   2.0000      -0.694400       -18.8956
  43   2.0000      -0.670413       -18.2429
  44   2.0000      -0.638045       -17.3621
  45   2.0000      -0.620565       -16.8864
  46   2.0000      -0.613079       -16.6827
  47   2.0000      -0.607423       -16.5288
  48   2.0000      -0.575394       -15.6573
  49   2.0000      -0.569414       -15.4945
  50   2.0000      -0.561227       -15.2718
  51   2.0000      -0.556382       -15.1399
  52   2.0000      -0.549776       -14.9602
  53   2.0000      -0.541856       -14.7447
  54   2.0000      -0.530629       -14.4392
  55   2.0000      -0.521419       -14.1885
  56   2.0000      -0.519620       -14.1396
  57   2.0000      -0.512163       -13.9367
  58   2.0000      -0.502339       -13.6693
  59   2.0000      -0.497838       -13.5469
  60   2.0000      -0.491032       -13.3616
  61   2.0000      -0.487078       -13.2541
  62   2.0000      -0.485171       -13.2022
  63   2.0000      -0.475875       -12.9492
  64   2.0000      -0.468498       -12.7485
  65   2.0000      -0.460145       -12.5212
  66   2.0000      -0.453063       -12.3285
  67   2.0000      -0.448906       -12.2154
  68   2.0000      -0.436825       -11.8866
  69   2.0000      -0.431473       -11.7410
  70   2.0000      -0.425476       -11.5778
  71   2.0000      -0.413967       -11.2646
  72   2.0000      -0.409589       -11.1455
  73   2.0000      -0.400845       -10.9075
  74   2.0000      -0.393909       -10.7188
  75   2.0000      -0.392146       -10.6708
  76   2.0000      -0.386072       -10.5056
  77   2.0000      -0.383293       -10.4299
  78   2.0000      -0.368048       -10.0151
  79   2.0000      -0.345800        -9.4097
  80   2.0000      -0.345054        -9.3894
  81   2.0000      -0.339020        -9.2252
  82   2.0000      -0.332563        -9.0495
  83   2.0000      -0.319323        -8.6892
  84   2.0000      -0.312905        -8.5146
  85   2.0000      -0.310220        -8.4415
  86   2.0000      -0.305580        -8.3152
  87   2.0000      -0.286303        -7.7907
  88   2.0000      -0.272259        -7.4085
  89   2.0000      -0.243343        -6.6217
  90   2.0000      -0.214514        -5.8372
  91   0.0000      -0.073079        -1.9886
  92   0.0000      -0.043471        -1.1829
  93   0.0000      -0.023504        -0.6396
  94   0.0000      -0.008744        -0.2379
  95   0.0000       0.001601         0.0436

MULLIKEN ATOMIC CHARGES
-----------------------
   0 C :   -0.107175
   1 C :   -0.164892
   2 C :   -0.070777
   3 N :    0.133715
   4 C :   -0.059099
   5 C :   -0.184198
   6 C :    0.039944
   7 C :    0.244140
   8 O :   -0.374106
   9 O :   -0.208665
  10 C :   -0.257793
  11 H :    0.173049
  12 H :    0.193560
  13 H :    0.185569
  14 H :    0.172177
  15 H :    0.159793
  16 H :    0.166970
  17 H :    0.161967
  18 C :   -0.022727
  19 C :    0.007924
  20 C :    0.030934
  21 C :   -0.192640
  22 C :   -0.184390
  23 C :   -0.146579
  24 C :   -0.310872
  25 C :    0.255949
  26 O :   -0.258941
  27 C :   -0.283229
  28 N :    0.506987
  29 O :   -0.484922
  30 H :    0.129846
  31 H :    0.156970
  32 H :    0.147631
  33 H :    0.152588
  34 H :    0.164876
  35 H :    0.151698
  36 H :    0.162925
  37 H :    0.151251
  38 O :   -0.488446
  39 H :    0.157296
  40 H :    0.178751
  41 F :   -0.187061
Sum of atomic charges:   -0.0000000

LOEWDIN ATOMIC CHARGES
----------------------
   0 C :   -0.093902
   1 C :   -0.146047
   2 C :   -0.113476
   3 N :    0.305776
   4 C :   -0.126194
   5 C :   -0.130039
   6 C :   -0.151386
   7 C :   -0.478655
   8 O :    0.100902
   9 O :    0.282805
  10 C :   -0.295407
  11 H :    0.165421
  12 H :    0.170336
  13 H :    0.167908
  14 H :    0.166054
  15 H :    0.186267
  16 H :    0.124590
  17 H :    0.121603
  18 C :   -0.369053
  19 C :   -0.165805
  20 C :   -0.104186
  21 C :   -0.111430
  22 C :   -0.164738
  23 C :   -0.143546
  24 C :   -0.139617
  25 C :   -0.226719
  26 O :    0.244887
  27 C :   -0.324239
  28 N :   -0.076360
  29 O :   -0.161780
  30 H :    0.194101
  31 H :    0.159040
  32 H :    0.152940
  33 H :    0.155068
  34 H :    0.160767
  35 H :    0.117716
  36 H :    0.122072
  37 H :    0.117537
  38 O :   -0.167392
  39 H :    0.120606
  40 H :    0.165058
  41 F :    0.188518

  Mayer bond orders larger than 0.100000
B(  0-C ,  1-C ) :   1.2619 B(  0-C ,  5-C ) :   1.5841 B(  0-C , 11-H ) :   0.9513
B(  1-C ,  2-C ) :   1.5602 B(  1-C , 40-H ) :   0.9520 B(  2-C ,  3-N ) :   1.2181
B(  2-C , 12-H ) :   0.9349 B(  3-N ,  4-C ) :   1.1588 B(  3-N ,  6-C ) :   0.9127
B(  4-C ,  5-C ) :   1.2389 B(  4-C , 13-H ) :   0.9035 B(  4-C , 18-C ) :   0.4337
B(  5-C , 14-H ) :   0.9538 B(  6-C ,  7-C ) :   0.9854 B(  6-C , 15-H ) :   0.9158
B(  6-C , 19-C ) :   0.9429 B(  7-C ,  8-O ) :   1.9360 B(  7-C ,  9-O ) :   1.2595
B(  9-O , 10-C ) :   0.8786 B( 10-C , 16-H ) :   0.9632 B( 10-C , 17-H ) :   0.9639
B( 10-C , 39-H ) :   0.9630 B( 18-C , 19-C ) :   0.9896 B( 18-C , 28-N ) :   1.1946
B( 18-C , 29-O ) :   0.1448 B( 18-C , 38-O ) :   0.1595 B( 18-C , 41-F ) :   1.0918
B( 19-C , 20-C ) :   0.8254 B( 19-C , 30-H ) :   0.8785 B( 20-C , 21-C ) :   1.3422
B( 20-C , 25-C ) :   1.3284 B( 21-C , 22-C ) :   1.3955 B( 21-C , 31-H ) :   0.9595
B( 22-C , 23-C ) :   1.4097 B( 22-C , 32-H ) :   0.9807 B( 23-C , 24-C ) :   1.3961
B( 23-C , 33-H ) :   0.9677 B( 24-C , 25-C ) :   1.3688 B( 24-C , 34-H ) :   0.9611
B( 25-C , 26-O ) :   1.1194 B( 26-O , 27-C ) :   0.9411 B( 27-C , 35-H ) :   0.9622
B( 27-C , 36-H ) :   0.9641 B( 27-C , 37-H ) :   0.9621 B( 28-N , 29-O ) :   1.3975
B( 28-N , 38-O ) :   1.3588 B( 29-O , 38-O ) :   0.1002

Dispersion correction           -0.053151863
FINAL SINGLE POINT ENERGY     -1242.523195380108

DIPOLE MOMENT
-------------
                                X             Y             Z
Electronic contribution:    -10.56231      -1.30846      -8.35605
Nuclear contribution   :     12.20975       4.19132      12.19144
                        -----------------------------------------
Total Dipole Moment    :      1.64744       2.88286       3.83540
                        -----------------------------------------
Magnitude (a.u.)       :      5.07299
Magnitude (Debye)      :     12.89451

Dispersion correction in the Hessian             ... done   (      0.7 sec)

VIBRATIONAL FREQUENCIES
-----------------------

Scaling factor for frequencies =  1.000000000  (already applied!)

   0:         0.00 cm**-1
   1:         0.00 cm**-1
   2:         0.00 cm**-1
   3:         0.00 cm**-1
   4:         0.00 cm**-1
   5:         0.00 cm**-1
   6:      -218.01 cm**-1 ***imaginary mode***
   7:        19.46 cm**-1
   8:        25.17 cm**-1
   9:        49.49 cm**-1
  10:        58.84 cm**-1
  11:        81.07 cm**-1
  12:        89.71 cm**-1
  13:        93.24 cm**-1
  14:        97.80 cm**-1
  15:       110.52 cm**-1
  16:       124.57 cm**-1
  17:       141.26 cm**-1
  18:       145.50 cm**-1
  19:       174.86 cm**-1
  20:       192.96 cm**-1
  21:       208.43 cm**-1
  22:       225.34 cm**-1
  23:       240.40 cm**-1
  24:       257.05 cm**-1
  25:       271.45 cm**-1
  26:       288.75 cm**-1
  27:       304.77 cm**-1
  28:       315.32 cm**-1
  29:       320.84 cm**-1
  30:       362.82 cm**-1
  31:       382.57 cm**-1
  32:       440.84 cm**-1
  33:       461.15 cm**-1
  34:       486.93 cm**-1
  35:       510.60 cm**-1
  36:       547.63 cm**-1
  37:       577.74 cm**-1
  38:       582.66 cm**-1
  39:       588.71 cm**-1
  40:       614.47 cm**-1
  41:       635.57 cm**-1
  42:       652.35 cm**-1
  43:       709.27 cm**-1
  44:       719.14 cm**-1
  45:       733.98 cm**-1
  46:       753.79 cm**-1
  47:       764.47 cm**-1
  48:       769.43 cm**-1
  49:       780.84 cm**-1
  50:       805.20 cm**-1
  51:       826.58 cm**-1
  52:       843.46 cm**-1
  53:       859.95 cm**-1
  54:       868.49 cm**-1
  55:       877.70 cm**-1
  56:       913.22 cm**-1
  57:       941.66 cm**-1
  58:       965.88 cm**-1
  59:       976.19 cm**-1
  60:       983.63 cm**-1
  61:       995.57 cm**-1
  62:      1000.87 cm**-1
  63:      1019.78 cm**-1
  64:      1049.38 cm**-1
  65:      1060.17 cm**-1
  66:      1071.91 cm**-1
  67:      1073.78 cm**-1
  68:      1087.66 cm**-1
  69:      1114.61 cm**-1
  70:      1130.95 cm**-1
  71:      1156.24 cm**-1
  72:      1170.59 cm**-1
  73:      1171.49 cm**-1
  74:      1173.34 cm**-1
  75:      1177.82 cm**-1
  76:      1195.66 cm**-1
  77:      1201.43 cm**-1
  78:      1204.48 cm**-1
  79:      1214.34 cm**-1
  80:      1216.53 cm**-1
  81:      1232.29 cm**-1
  82:      1256.55 cm**-1
  83:      1294.11 cm**-1
  84:      1298.87 cm**-1
  85:      1305.79 cm**-1
  86:      1328.51 cm**-1
  87:      1354.61 cm**-1
  88:      1367.82 cm**-1
  89:      1376.86 cm**-1
  90:      1387.63 cm**-1
  91:      1412.07 cm**-1
  92:      1446.00 cm**-1
  93:      1464.85 cm**-1
  94:      1465.58 cm**-1
  95:      1469.02 cm**-1
  96:      1470.90 cm**-1
  97:      1473.87 cm**-1
  98:      1474.40 cm**-1
  99:      1483.86 cm**-1
 100:      1497.78 cm**-1
 101:      1505.61 cm**-1
 102:      1511.10 cm**-1
 103:      1537.95 cm**-1
 104:      1606.53 cm**-1
 105:      1646.52 cm**-1
 106:      1662.92 cm**-1
 107:      1680.15 cm**-1
 108:      1795.25 cm**-1
 109:      3038.39 cm**-1
 110:      3075.82 cm**-1
 111:      3110.23 cm**-1
 112:      3140.36 cm**-1
 113:      3157.47 cm**-1
 114:      3161.74 cm**-1
 115:      3166.44 cm**-1
 116:      3194.74 cm**-1
 117:      3195.75 cm**-1
 118:      3209.54 cm**-1
 119:      3212.45 cm**-1
 120:      3223.69 cm**-1
 121:      3223.82 cm**-1
 122:      3233.40 cm**-1
 123:      3234.38 cm**-1
 124:      3236.19 cm**-1
 125:      3248.91 cm**-1

IR SPECTRUM
-----------

 Mode   freq       eps      Int      T**2         TX        TY        TZ
       cm**-1   L/(mol*cm) km/mol    a.u.
----------------------------------------------------------------------------
  7:     19.46   0.000575    2.90  0.009213  ( 0.050756 -0.051409  0.063198)
  8:     25.17   0.000275    1.39  0.003410  ( 0.017182  0.038079 -0.040796)
  9:     49.49   0.000334    1.69  0.002108  (-0.002950 -0.013110 -0.043901)
 10:     58.84   0.000753    3.80  0.003991  (-0.053451  0.032734  0.007934)
 11:     81.07   0.002710   13.70  0.010433  (-0.061391  0.065426  0.048824)
 12:     89.71   0.000568    2.87  0.001975  ( 0.036560  0.025202  0.001877)
 13:     93.24   0.000690    3.49  0.002308  (-0.044401 -0.012426 -0.013503)
 14:     97.80   0.001456    7.36  0.004646  (-0.032212  0.041790  0.043156)
 15:    110.52   0.000718    3.63  0.002027  ( 0.014549 -0.040038 -0.014560)
 16:    124.57   0.000902    4.56  0.002261  ( 0.001048  0.009898  0.046494)
 17:    141.26   0.000861    4.35  0.001903  (-0.023554  0.030550  0.020360)
 18:    145.50   0.000944    4.77  0.002025  (-0.015366  0.036747  0.020937)
 19:    174.86   0.001020    5.16  0.001821  (-0.019164  0.031289  0.021787)
 20:    192.96   0.002136   10.80  0.003455  (-0.028896  0.040610  0.031163)
 21:    208.43   0.005330   26.94  0.007981  ( 0.048094 -0.060967 -0.044166)
 22:    225.34   0.005155   26.05  0.007138  (-0.039941  0.068617  0.028895)
 23:    240.40   0.006522   32.96  0.008467  ( 0.003934 -0.062845 -0.067094)
 24:    257.05   0.000568    2.87  0.000690  (-0.008623  0.018501  0.016529)
 25:    271.45   0.005339   26.98  0.006137  ( 0.014170  0.058764  0.049834)
 26:    288.75   0.001735    8.77  0.001875  (-0.043016 -0.004778 -0.001503)
 27:    304.77   0.006123   30.94  0.006270  (-0.009850 -0.057828 -0.053184)
 28:    315.32   0.001164    5.88  0.001152  ( 0.016713 -0.024261 -0.016855)
 29:    320.84   0.007526   38.03  0.007320  (-0.004276 -0.080688 -0.028130)
 30:    362.82   0.005113   25.84  0.004398  (-0.052702 -0.040167  0.002592)
 31:    382.57   0.005082   25.68  0.004145  (-0.002618 -0.047836 -0.043011)
 32:    440.84   0.000711    3.59  0.000503  ( 0.016851 -0.009117 -0.011679)
 33:    461.15   0.000285    1.44  0.000193  (-0.001440  0.009624  0.009892)
 34:    486.93   0.000933    4.71  0.000598  ( 0.023336  0.007101  0.001694)
 35:    510.60   0.004664   23.57  0.002850  ( 0.008121 -0.037762 -0.036856)
 36:    547.63   0.011163   56.41  0.006361  (-0.001886  0.067948  0.041722)
 37:    577.74   0.011857   59.92  0.006404  ( 0.038455 -0.044861 -0.053972)
 38:    582.66   0.002852   14.41  0.001527  (-0.017321  0.034298  0.007139)
 39:    588.71   0.002508   12.68  0.001330  ( 0.016661  0.030136  0.011995)
 40:    614.47   0.003624   18.32  0.001841  ( 0.040825  0.002253  0.012998)
 41:    635.57   0.014613   73.85  0.007175  (-0.029175  0.075395  0.025282)
 42:    652.35   0.000109    0.55  0.000052  ( 0.004732 -0.003767  0.003922)
 43:    709.27   0.036570  184.81  0.016090  (-0.018405  0.116175  0.047481)
 44:    719.14   0.014447   73.01  0.006269  (-0.028414  0.073884 -0.001660)
 45:    733.98   0.008399   42.44  0.003571  (-0.020134 -0.056260  0.000472)
 46:    753.79   0.004187   21.16  0.001733  ( 0.021175  0.029899  0.019771)
 47:    764.47   0.005547   28.03  0.002264  (-0.032814  0.010172 -0.032926)
 48:    769.43   0.015311   77.37  0.006210  (-0.023165  0.068103  0.032173)
 49:    780.84   0.008868   44.82  0.003544  (-0.022234 -0.043625 -0.033862)
 50:    805.20   0.005129   25.92  0.001988  (-0.020802 -0.038756  0.007293)
 51:    826.58   0.002436   12.31  0.000920  (-0.022793 -0.019110  0.005906)
 52:    843.46   0.004795   24.23  0.001774  (-0.009058  0.000417  0.041134)
 53:    859.95   0.003313   16.74  0.001202  ( 0.011296 -0.027871 -0.017255)
 54:    868.49   0.007398   37.39  0.002658  ( 0.026391 -0.042551 -0.012293)
 55:    877.70   0.001997   10.09  0.000710  (-0.003542  0.017618  0.019676)
 56:    913.22   0.016020   80.96  0.005474  (-0.005765 -0.058907 -0.044398)
 57:    941.66   0.002027   10.24  0.000672  (-0.018058  0.002810 -0.018373)
 58:    965.88   0.005668   28.64  0.001831  ( 0.008736  0.040950  0.008826)
 59:    976.19   0.000850    4.29  0.000272  ( 0.000997  0.011602  0.011665)
 60:    983.63   0.005524   27.92  0.001753  ( 0.000924  0.039243  0.014549)
 61:    995.57   0.041554  210.00  0.013025  ( 0.036138 -0.068899 -0.083499)
 62:   1000.87   0.004213   21.29  0.001313  ( 0.011930 -0.018721 -0.028647)
 63:   1019.78   0.000928    4.69  0.000284  (-0.008852  0.009383  0.010841)
 64:   1049.38   0.004344   21.95  0.001292  (-0.007066 -0.029517  0.019255)
 65:   1060.17   0.000454    2.29  0.000134  ( 0.004855  0.006599  0.008149)
 66:   1071.91   0.009003   45.50  0.002621  ( 0.024271 -0.028422  0.034987)
 67:   1073.78   0.010948   55.33  0.003182  (-0.051521  0.017066  0.015364)
 68:   1087.66   0.008173   41.30  0.002345  ( 0.020063  0.027926 -0.034097)
 69:   1114.61   0.005763   29.12  0.001613  ( 0.004179  0.009076 -0.038904)
 70:   1130.95   0.011645   58.85  0.003213  (-0.038680 -0.006694 -0.040895)
 71:   1156.24   0.046373  234.35  0.012516  ( 0.031691  0.104412 -0.024689)
 72:   1170.59   0.000226    1.14  0.000060  ( 0.001421 -0.004999 -0.005773)
 73:   1171.49   0.000104    0.52  0.000028  ( 0.000712 -0.004956 -0.001605)
 74:   1173.34   0.005337   26.97  0.001419  (-0.002120 -0.020061 -0.031819)
 75:   1177.82   0.001283    6.48  0.000340  ( 0.012851 -0.007051  0.011180)
 76:   1195.66   0.002917   14.74  0.000761  ( 0.000872  0.026681 -0.006968)
 77:   1201.43   0.033622  169.91  0.008733  ( 0.059834  0.070370  0.014177)
 78:   1204.48   0.001110    5.61  0.000288  ( 0.013267 -0.009669  0.004253)
 79:   1214.34   0.005300   26.78  0.001362  (-0.002811 -0.035684  0.008989)
 80:   1216.53   0.005005   25.29  0.001284  ( 0.020774 -0.029180  0.000895)
 81:   1232.29   0.052596  265.80  0.013319  (-0.068221 -0.081676 -0.044657)
 82:   1256.55   0.103351  522.30  0.025667  ( 0.108937  0.115271  0.022640)
 83:   1294.11   0.061680  311.71  0.014874  (-0.030158 -0.103745  0.056579)
 84:   1298.87   0.038411  194.11  0.009229  (-0.003419  0.015452 -0.094753)
 85:   1305.79   0.012526   63.30  0.002993  (-0.003882  0.023659 -0.049180)
 86:   1328.51   0.004932   24.93  0.001159  ( 0.026578 -0.002652 -0.021100)
 87:   1354.61   0.033858  171.10  0.007800  (-0.039738  0.034604  0.070875)
 88:   1367.82   0.041653  210.50  0.009503  (-0.015757 -0.057890 -0.076834)
 89:   1376.86   0.048180  243.48  0.010920  ( 0.041583  0.065493  0.070009)
 90:   1387.63   0.016531   83.54  0.003718  (-0.006909 -0.017808  0.057904)
 91:   1412.07   0.061267  309.62  0.013540  ( 0.062697 -0.081056 -0.055126)
 92:   1446.00   0.033719  170.40  0.007277  (-0.017296  0.083530 -0.000840)
 93:   1464.85   0.003189   16.12  0.000679  ( 0.014514 -0.015195  0.015421)
 94:   1465.58   0.034797  175.85  0.007409  ( 0.006545  0.040196  0.075834)
 95:   1469.02   0.089384  451.71  0.018988  ( 0.030339  0.000832 -0.134413)
 96:   1470.90   0.013209   66.75  0.002802  (-0.021878 -0.014547 -0.045958)
 97:   1473.87   0.002323   11.74  0.000492  ( 0.002667  0.017598  0.013231)
 98:   1474.40   0.049240  248.84  0.010422  (-0.020676 -0.073568 -0.067691)
 99:   1483.86   0.004624   23.37  0.000972  ( 0.015699  0.015489 -0.022044)
100:   1497.78   0.014010   70.80  0.002919  (-0.004671 -0.029803  0.044823)
101:   1505.61   0.006065   30.65  0.001257  (-0.008536 -0.023317  0.025308)
102:   1511.10   0.001298    6.56  0.000268  ( 0.010244  0.009035  0.009031)
103:   1537.95   0.031929  161.36  0.006479  (-0.027550 -0.042643  0.062460)
104:   1606.53   0.013351   67.47  0.002593  (-0.015661  0.015599  0.045877)
105:   1646.52   0.005262   26.59  0.000997  (-0.010858  0.019042 -0.022733)
106:   1662.92   0.009554   48.28  0.001793  ( 0.014824  0.021288 -0.033466)
107:   1680.15   0.026812  135.50  0.004980  ( 0.067300  0.018859 -0.009743)
108:   1795.25   0.087068  440.00  0.015135  ( 0.079676 -0.041205  0.084194)
109:   3038.39   0.012443   62.88  0.001278  (-0.017837  0.020086 -0.023587)
110:   3075.82   0.004936   24.94  0.000501  ( 0.012232  0.017378 -0.007009)
111:   3110.23   0.007401   37.40  0.000743  (-0.004281 -0.022019 -0.015473)
112:   3140.36   0.003414   17.25  0.000339  ( 0.003156 -0.014909  0.010342)
113:   3157.47   0.000697    3.52  0.000069  ( 0.003045  0.007121 -0.002992)
114:   3161.74   0.003012   15.22  0.000297  (-0.007277  0.011784  0.010267)
115:   3166.44   0.003743   18.91  0.000369  (-0.012997 -0.006465  0.012575)
116:   3194.74   0.000510    2.58  0.000050  ( 0.006739 -0.001680  0.001271)
117:   3195.75   0.001667    8.42  0.000163  (-0.010368 -0.000804 -0.007388)
118:   3209.54   0.002582   13.05  0.000251  (-0.013305 -0.002006  0.008366)
119:   3212.45   0.000738    3.73  0.000072  ( 0.006802  0.004272  0.002677)
120:   3223.69   0.001694    8.56  0.000164  ( 0.001315 -0.011267 -0.005940)
121:   3223.82   0.004292   21.69  0.000415  ( 0.002183  0.019756 -0.004510)
122:   3233.40   0.000389    1.96  0.000038  (-0.004679  0.002421 -0.003123)
123:   3234.38   0.000728    3.68  0.000070  ( 0.007548  0.002121  0.002962)
124:   3236.19   0.000618    3.13  0.000060  (-0.001368 -0.007481  0.001336)
125:   3248.91   0.000097    0.49  0.000009  (-0.000004 -0.000447 -0.003013)

--------------------------
THERMOCHEMISTRY AT 298.15K
--------------------------

Temperature         ... 298.15 K
Pressure            ... 1.00 atm
Total Mass          ... 348.33 AMU

Throughout the following assumptions are being made:
  (1) The electronic state is orbitally nondegenerate
  (2) There are no thermally accessible electronically excited states
  (3) Hindered rotations indicated by low frequency modes are not
      treated as such but are treated as vibrations and this may
      cause some error
  (4) All equations used are the standard statistical mechanics
      equations for an ideal gas
  (5) All vibrations are strictly harmonic

freq.      19.46  E(vib)   ...       0.57
freq.      25.17  E(vib)   ...       0.56
freq.      49.49  E(vib)   ...       0.52
freq.      58.84  E(vib)   ...       0.51
freq.      81.07  E(vib)   ...       0.48
freq.      89.71  E(vib)   ...       0.47
freq.      93.24  E(vib)   ...       0.47
freq.      97.80  E(vib)   ...       0.46
freq.     110.52  E(vib)   ...       0.45
freq.     124.57  E(vib)   ...       0.43
freq.     141.26  E(vib)   ...       0.41
freq.     145.50  E(vib)   ...       0.41
freq.     174.86  E(vib)   ...       0.38
freq.     192.96  E(vib)   ...       0.36
freq.     208.43  E(vib)   ...       0.34
freq.     225.34  E(vib)   ...       0.33
freq.     240.40  E(vib)   ...       0.31
freq.     257.05  E(vib)   ...       0.30
freq.     271.45  E(vib)   ...       0.29
freq.     288.75  E(vib)   ...       0.27
freq.     304.77  E(vib)   ...       0.26
freq.     315.32  E(vib)   ...       0.25
freq.     320.84  E(vib)   ...       0.25
freq.     362.82  E(vib)   ...       0.22
freq.     382.57  E(vib)   ...       0.21
freq.     440.84  E(vib)   ...       0.17
freq.     461.15  E(vib)   ...       0.16
freq.     486.93  E(vib)   ...       0.15
freq.     510.60  E(vib)   ...       0.14
freq.     547.63  E(vib)   ...       0.12
freq.     577.74  E(vib)   ...       0.11
freq.     582.66  E(vib)   ...       0.11
freq.     588.71  E(vib)   ...       0.10
freq.     614.47  E(vib)   ...       0.10
freq.     635.57  E(vib)   ...       0.09
freq.     652.35  E(vib)   ...       0.08
freq.     709.27  E(vib)   ...       0.07
freq.     719.14  E(vib)   ...       0.07
freq.     733.98  E(vib)   ...       0.06
freq.     753.79  E(vib)   ...       0.06
freq.     764.47  E(vib)   ...       0.06
freq.     769.43  E(vib)   ...       0.06
freq.     780.84  E(vib)   ...       0.05
freq.     805.20  E(vib)   ...       0.05
freq.     826.58  E(vib)   ...       0.04
freq.     843.46  E(vib)   ...       0.04
freq.     859.95  E(vib)   ...       0.04
freq.     868.49  E(vib)   ...       0.04
freq.     877.70  E(vib)   ...       0.04
freq.     913.22  E(vib)   ...       0.03
freq.     941.66  E(vib)   ...       0.03
freq.     965.88  E(vib)   ...       0.03
freq.     976.19  E(vib)   ...       0.03
freq.     983.63  E(vib)   ...       0.02
freq.     995.57  E(vib)   ...       0.02
freq.    1000.87  E(vib)   ...       0.02
freq.    1019.78  E(vib)   ...       0.02
freq.    1049.38  E(vib)   ...       0.02
freq.    1060.17  E(vib)   ...       0.02
freq.    1071.91  E(vib)   ...       0.02
freq.    1073.78  E(vib)   ...       0.02
freq.    1087.66  E(vib)   ...       0.02
freq.    1114.61  E(vib)   ...       0.01
freq.    1130.95  E(vib)   ...       0.01
freq.    1156.24  E(vib)   ...       0.01
freq.    1170.59  E(vib)   ...       0.01
freq.    1171.49  E(vib)   ...       0.01
freq.    1173.34  E(vib)   ...       0.01
freq.    1177.82  E(vib)   ...       0.01
freq.    1195.66  E(vib)   ...       0.01
freq.    1201.43  E(vib)   ...       0.01
freq.    1204.48  E(vib)   ...       0.01
freq.    1214.34  E(vib)   ...       0.01
freq.    1216.53  E(vib)   ...       0.01
freq.    1232.29  E(vib)   ...       0.01
freq.    1256.55  E(vib)   ...       0.01
freq.    1294.11  E(vib)   ...       0.01
freq.    1298.87  E(vib)   ...       0.01
freq.    1305.79  E(vib)   ...       0.01
freq.    1328.51  E(vib)   ...       0.01
freq.    1354.61  E(vib)   ...       0.01
freq.    1367.82  E(vib)   ...       0.01
freq.    1376.86  E(vib)   ...       0.01
freq.    1387.63  E(vib)   ...       0.00
freq.    1412.07  E(vib)   ...       0.00
freq.    1446.00  E(vib)   ...       0.00
freq.    1464.85  E(vib)   ...       0.00
freq.    1465.58  E(vib)   ...       0.00
freq.    1469.02  E(vib)   ...       0.00
freq.    1470.90  E(vib)   ...       0.00
freq.    1473.87  E(vib)   ...       0.00
freq.    1474.40  E(vib)   ...       0.00
freq.    1483.86  E(vib)   ...       0.00
freq.    1497.78  E(vib)   ...       0.00
freq.    1505.61  E(vib)   ...       0.00
freq.    1511.10  E(vib)   ...       0.00
freq.    1537.95  E(vib)   ...       0.00
freq.    1606.53  E(vib)   ...       0.00
freq.    1646.52  E(vib)   ...       0.00
freq.    1662.92  E(vib)   ...       0.00
freq.    1680.15  E(vib)   ...       0.00
freq.    1795.25  E(vib)   ...       0.00
freq.    3038.39  E(vib)   ...       0.00
freq.    3075.82  E(vib)   ...       0.00
freq.    3110.23  E(vib)   ...       0.00
freq.    3140.36  E(vib)   ...       0.00
freq.    3157.47  E(vib)   ...       0.00
freq.    3161.74  E(vib)   ...       0.00
freq.    3166.44  E(vib)   ...       0.00
freq.    3194.74  E(vib)   ...       0.00
freq.    3195.75  E(vib)   ...       0.00
freq.    3209.54  E(vib)   ...       0.00
freq.    3212.45  E(vib)   ...       0.00
freq.    3223.69  E(vib)   ...       0.00
freq.    3223.82  E(vib)   ...       0.00
freq.    3233.40  E(vib)   ...       0.00
freq.    3234.38  E(vib)   ...       0.00
freq.    3236.19  E(vib)   ...       0.00
freq.    3248.91  E(vib)   ...       0.00

------------
INNER ENERGY
------------

The inner energy is: U= E(el) + E(ZPE) + E(vib) + E(rot) + E(trans)
    E(el)   - is the total energy from the electronic structure calculation
              = E(kin-el) + E(nuc-el) + E(el-el) + E(nuc-nuc)
    E(ZPE)  - the the zero temperature vibrational energy from the frequency calculation
    E(vib)  - the the finite temperature correction to E(ZPE) due to population
              of excited vibrational states
    E(rot)  - is the rotational thermal energy
    E(trans)- is the translational thermal energy

Summary of contributions to the inner energy U:
Electronic energy                ...  -1242.52319538 Eh
Zero point energy                ...      0.32607660 Eh     204.62 kcal/mol
Thermal vibrational correction   ...      0.01920922 Eh      12.05 kcal/mol
Thermal rotational correction    ...      0.00141627 Eh       0.89 kcal/mol
Thermal translational correction ...      0.00141627 Eh       0.89 kcal/mol
-----------------------------------------------------------------------
Total thermal energy                  -1242.17507702 Eh

Summary of corrections to the electronic energy:

Rotational constants in cm-1:     0.010727     0.006560     0.005695

                             ****ORCA TERMINATED NORMALLY****
TOTAL RUN TIME: 0 days 2 hours 15 minutes 10 seconds 990 msec
