                         Program Version 5.0.4 -  RELEASE  -
|  1> %pal nprocs 28 end
|  2> %maxcore 3500
|  3> !PBE0 D3BJ def2-TZVP TightOpt TightSCF OPTTS FREQ
|  4> !CPCM(dmso)
|  5> %scf
|  6> MaxIter 800
|  7> end
|  8> %geom
|  9> MaxIter 800
| 10> MaxStep 0.2
| 11> calc_hess True
| 12> end
| 13> *xyz 0 1
| 14> C       -3.927039000     -1.198825000      0.919757000
| 15> C       -3.819609000     -1.606857000     -0.413464000
| 16> C       -2.624469000     -1.441970000     -1.055381000
| 17> N       -1.553735000     -0.952621000     -0.404138000
| 18> C       -1.619535000     -0.571834000      0.889393000
| 19> C       -2.824428000     -0.699388000      1.574758000
| 20> C       -0.332205000     -0.626306000     -1.114298000
| 21> C        0.737616000     -1.688298000     -0.955462000
| 22> O        1.775328000     -1.642550000     -1.565325000
| 23> O        0.369842000     -2.686529000     -0.169512000
| 24> C        1.313413000     -3.753634000     -0.031326000
| 25> H       -4.869681000     -1.303065000      1.443739000
| 26> H       -2.474912000     -1.679161000     -2.100033000
| 27> H       -0.681577000     -0.407896000      1.394091000
| 28> H       -2.861899000     -0.424115000      2.619863000
| 29> H       -0.576333000     -0.653508000     -2.175905000
| 30> H        0.856984000     -4.460252000      0.656407000
| 31> H        2.251725000     -3.376268000      0.374384000
| 32> C       -1.045532255      1.215764553      0.116386544
| 33> C        0.104633000      0.881041000     -0.793011000
| 34> C        1.561790000      1.097110000     -0.474467000
| 35> C        2.291380000      1.970549000     -1.268585000
| 36> C        3.629088000      2.248186000     -1.017676000
| 37> C        4.257098000      1.634859000      0.052538000
| 38> C        3.555882000      0.753535000      0.865933000
| 39> C        2.218781000      0.487008000      0.602236000
| 40> O        1.468789000     -0.363685000      1.340861000
| 41> C        2.068257000     -1.025052000      2.440099000
| 42> N       -2.219222700      1.409454848     -0.507115565
| 43> O       -2.336790129      1.097727329     -1.730879532
| 44> H       -0.064239000      1.375200000     -1.750718000
| 45> H        1.792309000      2.444302000     -2.107759000
| 46> H        4.171343000      2.934698000     -1.656727000
| 47> H        5.300968000      1.835689000      0.265288000
| 48> H        4.056072000      0.278716000      1.699312000
| 49> H        2.398658000     -0.306472000      3.194637000
| 50> H        2.916399000     -1.634504000      2.117688000
| 51> H        1.296341000     -1.667470000      2.859199000
| 52> O       -3.218685467      1.849863253      0.128466361
| 53> H        1.493708000     -4.222194000     -0.998794000
| 54> H       -4.660053000     -2.021677000     -0.951679000
| 55> C       -0.863078946      1.876948585      1.437728292
| 56> H       -0.023624568      1.448408419      1.979102696
| 57> H       -0.682462827      2.951652718      1.325975230
| 58> H       -1.758513192      1.770667921      2.056366931
| 59> *
| 60>
| 61>                          ****END OF INPUT****
 Total Charge           Charge          ....    0
 Multiplicity           Mult            ....    1
 Number of Electrons    NEL             ....  182
Dispersion correction           -0.061062695
FINAL SINGLE POINT ENERGY     -1182.580628034258
Dispersion correction            ... done
Dispersion correction in the Hessian             ... done   (      0.8 sec)
Dispersion correction           -0.061075362
FINAL SINGLE POINT ENERGY     -1182.613907320938
Dispersion correction            ... done
Dispersion correction           -0.060931321
FINAL SINGLE POINT ENERGY     -1182.617587654780
FINAL SINGLE POINT ENERGY     -1182.619488854620
FINAL SINGLE POINT ENERGY     -1182.619523076390
FINAL SINGLE POINT ENERGY     -1182.619237880165
FINAL SINGLE POINT ENERGY     -1182.619385736214
FINAL SINGLE POINT ENERGY     -1182.618829550120
FINAL SINGLE POINT ENERGY     -1182.618974458896
FINAL SINGLE POINT ENERGY     -1182.619091512263
FINAL SINGLE POINT ENERGY     -1182.619174668484
FINAL SINGLE POINT ENERGY     -1182.619174730636
FINAL SINGLE POINT ENERGY     -1182.619175029850
FINAL SINGLE POINT ENERGY     -1182.619175012637
FINAL SINGLE POINT ENERGY     -1182.619174956138
FINAL SINGLE POINT ENERGY     -1182.619175144009
FINAL SINGLE POINT ENERGY     -1182.619175101263
Dispersion correction           -0.060496668
FINAL SINGLE POINT ENERGY     -1182.619175174936
Dispersion correction            ... done
Dispersion correction           -0.060496518
FINAL SINGLE POINT ENERGY     -1182.619175553679
Dispersion correction            ... done
                    ***********************HURRAY********************

CARTESIAN COORDINATES (ANGSTROEM)
---------------------------------
  C     -4.014182   -1.216022    0.774787
  C     -3.849606   -1.745961   -0.523196
  C     -2.628802   -1.643734   -1.112194
  N     -1.575761   -1.110989   -0.452917
  C     -1.687916   -0.595013    0.811268
  C     -2.951675   -0.674407    1.440286
  C     -0.349381   -0.770298   -1.131907
  C      0.756575   -1.787959   -0.934872
  O      1.806445   -1.712776   -1.521717
  O      0.405435   -2.794268   -0.150806
  C      1.383032   -3.825699    0.014195
  H     -4.981298   -1.276076    1.260433
  H     -2.428251   -1.970214   -2.124502
  H     -0.781788   -0.594274    1.402765
  H     -3.042991   -0.320909    2.458618
  H     -0.551616   -0.811918   -2.203080
  H      0.941290   -4.540806    0.702872
  H      2.301985   -3.412550    0.429319
  C     -0.964786    1.327293    0.211371
  C      0.012976    0.750653   -0.788219
  C      1.455009    1.047478   -0.466308
  C      2.129992    1.975814   -1.246752
  C      3.448949    2.329611   -0.992368
  C      4.113577    1.738983    0.068372
  C      3.467888    0.803884    0.867309
  C      2.148964    0.460451    0.600316
  O      1.454368   -0.446196    1.325268
  C      2.093279   -1.079356    2.418747
  N     -2.137222    1.772292   -0.354396
  O     -2.439778    1.383326   -1.504691
  H     -0.189721    1.263937   -1.727549
  H      1.602315    2.432363   -2.077922
  H      3.947736    3.057902   -1.620495
  H      5.143470    1.999495    0.284598
  H      3.997138    0.346905    1.692575
  H      2.374609   -0.349419    3.182413
  H      2.980597   -1.627448    2.091957
  H      1.364417   -1.775901    2.828097
  O     -2.928241    2.472252    0.310090
  H      1.595159   -4.298723   -0.944742
  H     -4.668873   -2.202511   -1.059670
  C     -0.552968    2.009860    1.471577
  H      0.242279    1.455257    1.964281
  H     -0.193587    3.027550    1.285207
  H     -1.400262    2.075370    2.153536

 Multiplicity           Mult            ....    1
 Number of Electrons    NEL             ....  182
 Basis Dimension        Dim             ....  895

ORBITAL ENERGIES
----------------

  NO   OCC          E(Eh)            E(eV)
   0   2.0000     -19.266531      -524.2690
   1   2.0000     -19.250559      -523.8343
   2   2.0000     -19.203977      -522.5668
   3   2.0000     -19.194659      -522.3132
   4   2.0000     -19.194473      -522.3082
   5   2.0000     -14.571934      -396.5225
   6   2.0000     -14.470040      -393.7498
   7   2.0000     -10.364601      -282.0351
   8   2.0000     -10.296629      -280.1855
   9   2.0000     -10.296242      -280.1750
  10   2.0000     -10.290651      -280.0229
  11   2.0000     -10.286536      -279.9109
  12   2.0000     -10.271862      -279.5116
  13   2.0000     -10.269152      -279.4378
  14   2.0000     -10.265371      -279.3350
  15   2.0000     -10.259840      -279.1844
  16   2.0000     -10.253224      -279.0044
  17   2.0000     -10.240466      -278.6572
  18   2.0000     -10.239836      -278.6401
  19   2.0000     -10.233677      -278.4725
  20   2.0000     -10.229259      -278.3523
  21   2.0000     -10.228745      -278.3383
  22   2.0000     -10.225986      -278.2632
  23   2.0000     -10.221058      -278.1291
  24   2.0000     -10.211810      -277.8775
  25   2.0000      -1.214906       -33.0593
  26   2.0000      -1.157587       -31.4995
  27   2.0000      -1.113020       -30.2868
  28   2.0000      -1.063660       -28.9437
  29   2.0000      -1.050784       -28.5933
  30   2.0000      -1.031633       -28.0722
  31   2.0000      -0.899157       -24.4673
  32   2.0000      -0.876738       -23.8572
  33   2.0000      -0.861966       -23.4553
  34   2.0000      -0.816541       -22.2192
  35   2.0000      -0.810667       -22.0594
  36   2.0000      -0.788485       -21.4558
  37   2.0000      -0.779777       -21.2188
  38   2.0000      -0.752455       -20.4754
  39   2.0000      -0.724357       -19.7108
  40   2.0000      -0.721527       -19.6338
  41   2.0000      -0.702665       -19.1205
  42   2.0000      -0.682568       -18.5736
  43   2.0000      -0.664035       -18.0693
  44   2.0000      -0.629373       -17.1261
  45   2.0000      -0.615073       -16.7370
  46   2.0000      -0.600499       -16.3404
  47   2.0000      -0.585546       -15.9335
  48   2.0000      -0.564300       -15.3554
  49   2.0000      -0.551219       -14.9994
  50   2.0000      -0.549438       -14.9510
  51   2.0000      -0.539395       -14.6777
  52   2.0000      -0.535706       -14.5773
  53   2.0000      -0.523217       -14.2375
  54   2.0000      -0.517226       -14.0744
  55   2.0000      -0.513423       -13.9709
  56   2.0000      -0.508201       -13.8289
  57   2.0000      -0.501017       -13.6334
  58   2.0000      -0.494783       -13.4637
  59   2.0000      -0.487780       -13.2732
  60   2.0000      -0.487126       -13.2554
  61   2.0000      -0.471140       -12.8204
  62   2.0000      -0.463757       -12.6195
  63   2.0000      -0.462246       -12.5784
  64   2.0000      -0.455410       -12.3923
  65   2.0000      -0.446829       -12.1588
  66   2.0000      -0.436028       -11.8649
  67   2.0000      -0.424758       -11.5583
  68   2.0000      -0.422130       -11.4867
  69   2.0000      -0.415696       -11.3117
  70   2.0000      -0.406721       -11.0674
  71   2.0000      -0.396872       -10.7994
  72   2.0000      -0.394162       -10.7257
  73   2.0000      -0.390078       -10.6146
  74   2.0000      -0.387280       -10.5384
  75   2.0000      -0.380593       -10.3564
  76   2.0000      -0.379120       -10.3164
  77   2.0000      -0.372256       -10.1296
  78   2.0000      -0.367903       -10.0112
  79   2.0000      -0.346124        -9.4185
  80   2.0000      -0.342085        -9.3086
  81   2.0000      -0.335105        -9.1187
  82   2.0000      -0.331989        -9.0339
  83   2.0000      -0.314295        -8.5524
  84   2.0000      -0.306937        -8.3522
  85   2.0000      -0.300222        -8.1694
  86   2.0000      -0.294273        -8.0076
  87   2.0000      -0.275459        -7.4956
  88   2.0000      -0.268773        -7.3137
  89   2.0000      -0.241786        -6.5793
  90   2.0000      -0.204134        -5.5548
  91   0.0000      -0.065935        -1.7942
  92   0.0000      -0.032634        -0.8880
  93   0.0000      -0.013599        -0.3700
  94   0.0000      -0.000511        -0.0139
  95   0.0000       0.002057         0.0560

MULLIKEN ATOMIC CHARGES
-----------------------
   0 C :   -0.106450
   1 C :   -0.174343
   2 C :   -0.084181
   3 N :    0.147445
   4 C :   -0.011676
   5 C :   -0.241267
   6 C :   -0.043431
   7 C :    0.305376
   8 O :   -0.383642
   9 O :   -0.215084
  10 C :   -0.276026
  11 H :    0.168040
  12 H :    0.186403
  13 H :    0.180101
  14 H :    0.165323
  15 H :    0.156973
  16 H :    0.163841
  17 H :    0.153439
  18 C :   -0.190380
  19 C :    0.159244
  20 C :    0.119479
  21 C :   -0.256349
  22 C :   -0.193076
  23 C :   -0.153881
  24 C :   -0.330784
  25 C :    0.237790
  26 O :   -0.267994
  27 C :   -0.296629
  28 N :    0.503814
  29 O :   -0.494782
  30 H :    0.107204
  31 H :    0.144613
  32 H :    0.145827
  33 H :    0.150645
  34 H :    0.164849
  35 H :    0.163113
  36 H :    0.162284
  37 H :    0.166820
  38 O :   -0.490793
  39 H :    0.160016
  40 H :    0.172328
  41 C :   -0.421559
  42 H :    0.156642
  43 H :    0.142366
  44 H :    0.148353
Sum of atomic charges:   -0.0000000

LOEWDIN ATOMIC CHARGES
----------------------
   0 C :   -0.106472
   1 C :   -0.164997
   2 C :   -0.126367
   3 N :    0.302344
   4 C :   -0.125216
   5 C :   -0.140504
   6 C :   -0.150053
   7 C :   -0.488104
   8 O :    0.097394
   9 O :    0.273529
  10 C :   -0.300191
  11 H :    0.162859
  12 H :    0.168035
  13 H :    0.172284
  14 H :    0.162622
  15 H :    0.191377
  16 H :    0.123620
  17 H :    0.118836
  18 C :   -0.252117
  19 C :   -0.142367
  20 C :   -0.104084
  21 C :   -0.110164
  22 C :   -0.165379
  23 C :   -0.146001
  24 C :   -0.138903
  25 C :   -0.244158
  26 O :    0.258642
  27 C :   -0.327051
  28 N :   -0.052005
  29 O :   -0.158195
  30 H :    0.184809
  31 H :    0.159426
  32 H :    0.152047
  33 H :    0.154357
  34 H :    0.160967
  35 H :    0.120729
  36 H :    0.119555
  37 H :    0.123696
  38 O :   -0.172434
  39 H :    0.120503
  40 H :    0.161091
  41 C :   -0.284118
  42 H :    0.140183
  43 H :    0.134984
  44 H :    0.134989

  Mayer bond orders larger than 0.100000
B(  0-C ,  1-C ) :   1.2378 B(  0-C ,  5-C ) :   1.5949 B(  0-C , 11-H ) :   0.9529
B(  1-C ,  2-C ) :   1.5532 B(  1-C , 40-H ) :   0.9582 B(  2-C ,  3-N ) :   1.2218
B(  2-C , 12-H ) :   0.9451 B(  3-N ,  4-C ) :   1.1498 B(  3-N ,  6-C ) :   0.9263
B(  4-C ,  5-C ) :   1.2052 B(  4-C , 13-H ) :   0.9186 B(  4-C , 18-C ) :   0.4196
B(  5-C , 14-H ) :   0.9674 B(  6-C ,  7-C ) :   0.9671 B(  6-C , 15-H ) :   0.9083
B(  6-C , 19-C ) :   0.9847 B(  7-C ,  8-O ) :   1.9861 B(  7-C ,  9-O ) :   1.2694
B(  9-O , 10-C ) :   0.8903 B( 10-C , 16-H ) :   0.9640 B( 10-C , 17-H ) :   0.9667
B( 10-C , 39-H ) :   0.9662 B( 18-C , 19-C ) :   0.9933 B( 18-C , 28-N ) :   1.2159
B( 18-C , 41-C ) :   0.9977 B( 19-C , 20-C ) :   0.7379 B( 19-C , 30-H ) :   0.9053
B( 20-C , 21-C ) :   1.3597 B( 20-C , 25-C ) :   1.2511 B( 21-C , 22-C ) :   1.4038
B( 21-C , 31-H ) :   0.9785 B( 22-C , 23-C ) :   1.4060 B( 22-C , 32-H ) :   0.9829
B( 23-C , 24-C ) :   1.3928 B( 23-C , 33-H ) :   0.9701 B( 24-C , 25-C ) :   1.4004
B( 24-C , 34-H ) :   0.9609 B( 25-C , 26-O ) :   1.0498 B( 26-O , 27-C ) :   0.9200
B( 27-C , 35-H ) :   0.9575 B( 27-C , 36-H ) :   0.9629 B( 27-C , 37-H ) :   0.9624
B( 28-N , 29-O ) :   1.4043 B( 28-N , 38-O ) :   1.4227 B( 41-C , 42-H ) :   0.9690
B( 41-C , 43-H ) :   0.9679 B( 41-C , 44-H ) :   0.9511

Dispersion correction           -0.060497658
FINAL SINGLE POINT ENERGY     -1182.619175150901

DIPOLE MOMENT
-------------
                                X             Y             Z
Electronic contribution:     -7.18357       1.90557      -7.95999
Nuclear contribution   :      8.94146      -5.61231       9.77856
                        -----------------------------------------
Total Dipole Moment    :      1.75790      -3.70674       1.81858
                        -----------------------------------------
Magnitude (a.u.)       :      4.48747
Magnitude (Debye)      :     11.40624

Dispersion correction in the Hessian             ... done   (      0.8 sec)

VIBRATIONAL FREQUENCIES
-----------------------

Scaling factor for frequencies =  1.000000000  (already applied!)

   0:         0.00 cm**-1
   1:         0.00 cm**-1
   2:         0.00 cm**-1
   3:         0.00 cm**-1
   4:         0.00 cm**-1
   5:         0.00 cm**-1
   6:      -276.71 cm**-1 ***imaginary mode***
   7:        34.16 cm**-1
   8:        52.65 cm**-1
   9:        73.23 cm**-1
  10:        85.66 cm**-1
  11:        89.55 cm**-1
  12:        91.38 cm**-1
  13:       105.81 cm**-1
  14:       116.72 cm**-1
  15:       118.42 cm**-1
  16:       127.60 cm**-1
  17:       148.16 cm**-1
  18:       151.64 cm**-1
  19:       167.40 cm**-1
  20:       179.05 cm**-1
  21:       202.60 cm**-1
  22:       213.65 cm**-1
  23:       216.92 cm**-1
  24:       235.13 cm**-1
  25:       262.14 cm**-1
  26:       281.54 cm**-1
  27:       297.22 cm**-1
  28:       305.11 cm**-1
  29:       321.02 cm**-1
  30:       331.16 cm**-1
  31:       380.72 cm**-1
  32:       385.66 cm**-1
  33:       439.10 cm**-1
  34:       479.72 cm**-1
  35:       483.24 cm**-1
  36:       506.30 cm**-1
  37:       548.50 cm**-1
  38:       571.33 cm**-1
  39:       587.31 cm**-1
  40:       602.07 cm**-1
  41:       628.02 cm**-1
  42:       639.66 cm**-1
  43:       648.43 cm**-1
  44:       659.86 cm**-1
  45:       698.77 cm**-1
  46:       717.49 cm**-1
  47:       756.57 cm**-1
  48:       764.59 cm**-1
  49:       767.44 cm**-1
  50:       776.81 cm**-1
  51:       785.87 cm**-1
  52:       813.22 cm**-1
  53:       825.55 cm**-1
  54:       841.63 cm**-1
  55:       871.69 cm**-1
  56:       890.21 cm**-1
  57:       890.74 cm**-1
  58:       939.37 cm**-1
  59:       955.73 cm**-1
  60:       960.09 cm**-1
  61:       964.14 cm**-1
  62:       970.84 cm**-1
  63:       987.68 cm**-1
  64:       991.50 cm**-1
  65:      1012.69 cm**-1
  66:      1044.54 cm**-1
  67:      1063.58 cm**-1
  68:      1068.92 cm**-1
  69:      1071.30 cm**-1
  70:      1086.15 cm**-1
  71:      1095.44 cm**-1
  72:      1120.12 cm**-1
  73:      1145.73 cm**-1
  74:      1170.19 cm**-1
  75:      1172.40 cm**-1
  76:      1172.82 cm**-1
  77:      1174.64 cm**-1
  78:      1185.83 cm**-1
  79:      1203.07 cm**-1
  80:      1205.91 cm**-1
  81:      1207.71 cm**-1
  82:      1218.20 cm**-1
  83:      1230.23 cm**-1
  84:      1247.07 cm**-1
  85:      1281.44 cm**-1
  86:      1295.63 cm**-1
  87:      1301.73 cm**-1
  88:      1305.83 cm**-1
  89:      1327.76 cm**-1
  90:      1332.51 cm**-1
  91:      1355.90 cm**-1
  92:      1371.93 cm**-1
  93:      1385.57 cm**-1
  94:      1392.35 cm**-1
  95:      1399.60 cm**-1
  96:      1426.49 cm**-1
  97:      1451.92 cm**-1
  98:      1461.25 cm**-1
  99:      1465.06 cm**-1
 100:      1465.48 cm**-1
 101:      1467.16 cm**-1
 102:      1473.51 cm**-1
 103:      1476.76 cm**-1
 104:      1477.70 cm**-1
 105:      1487.39 cm**-1
 106:      1496.31 cm**-1
 107:      1499.02 cm**-1
 108:      1514.80 cm**-1
 109:      1540.96 cm**-1
 110:      1606.30 cm**-1
 111:      1650.20 cm**-1
 112:      1664.91 cm**-1
 113:      1680.88 cm**-1
 114:      1788.87 cm**-1
 115:      3042.75 cm**-1
 116:      3043.95 cm**-1
 117:      3074.50 cm**-1
 118:      3109.22 cm**-1
 119:      3116.85 cm**-1
 120:      3124.27 cm**-1
 121:      3126.90 cm**-1
 122:      3158.46 cm**-1
 123:      3166.65 cm**-1
 124:      3177.60 cm**-1
 125:      3184.70 cm**-1
 126:      3191.26 cm**-1
 127:      3196.44 cm**-1
 128:      3205.71 cm**-1
 129:      3208.02 cm**-1
 130:      3213.52 cm**-1
 131:      3229.06 cm**-1
 132:      3231.59 cm**-1
 133:      3232.96 cm**-1
 134:      3248.39 cm**-1

IR SPECTRUM
-----------

 Mode   freq       eps      Int      T**2         TX        TY        TZ
       cm**-1   L/(mol*cm) km/mol    a.u.
----------------------------------------------------------------------------
  7:     34.16   0.000477    2.41  0.004358  (-0.021439 -0.011210 -0.061422)
  8:     52.65   0.000279    1.41  0.001653  (-0.033267 -0.021799  0.008408)
  9:     73.23   0.001316    6.65  0.005607  (-0.012807  0.045523  0.058059)
 10:     85.66   0.000632    3.20  0.002304  ( 0.004455 -0.046276  0.011941)
 11:     89.55   0.000838    4.23  0.002920  (-0.032192 -0.041024 -0.014163)
 12:     91.38   0.000944    4.77  0.003223  ( 0.012032  0.055483 -0.000383)
 13:    105.81   0.001012    5.11  0.002985  ( 0.024163  0.038091 -0.030818)
 14:    116.72   0.000380    1.92  0.001016  (-0.018749 -0.023760  0.010000)
 15:    118.42   0.000999    5.05  0.002632  (-0.001169  0.038109  0.034328)
 16:    127.60   0.000023    0.12  0.000056  (-0.005008  0.005562 -0.000021)
 17:    148.16   0.003001   15.17  0.006322  (-0.026167 -0.063017  0.040813)
 18:    151.64   0.000598    3.02  0.001231  ( 0.001493  0.034384 -0.006789)
 19:    167.40   0.000492    2.49  0.000917  ( 0.009287  0.028815  0.000719)
 20:    179.05   0.001015    5.13  0.001770  ( 0.022210 -0.003974 -0.035504)
 21:    202.60   0.008805   44.50  0.013562  (-0.009853  0.114872 -0.016409)
 22:    213.65   0.000310    1.56  0.000452  (-0.006897 -0.016903 -0.010906)
 23:    216.92   0.003036   15.34  0.004367  (-0.002695  0.054435  0.037369)
 24:    235.13   0.001474    7.45  0.001957  ( 0.030216  0.030031 -0.011901)
 25:    262.14   0.001357    6.86  0.001615  (-0.002370 -0.037184 -0.015055)
 26:    281.54   0.001032    5.22  0.001144  (-0.029103  0.012553  0.011805)
 27:    297.22   0.001199    6.06  0.001259  (-0.009409 -0.034131  0.002340)
 28:    305.11   0.002111   10.67  0.002159  ( 0.016866 -0.040725  0.014706)
 29:    321.02   0.003809   19.25  0.003703  ( 0.011925  0.056458 -0.019321)
 30:    331.16   0.000072    0.36  0.000068  ( 0.006242  0.003852 -0.003732)
 31:    380.72   0.001796    9.07  0.001472  ( 0.012649 -0.035464  0.007357)
 32:    385.66   0.002069   10.46  0.001674  (-0.037477  0.008124 -0.014271)
 33:    439.10   0.000259    1.31  0.000184  (-0.012519 -0.003489  0.003899)
 34:    479.72   0.001336    6.75  0.000869  (-0.023555  0.017486  0.002916)
 35:    483.24   0.001332    6.73  0.000860  (-0.008269  0.027546  0.005730)
 36:    506.30   0.000552    2.79  0.000340  (-0.016440  0.007497 -0.003676)
 37:    548.50   0.005652   28.56  0.003215  ( 0.017573  0.038923  0.037305)
 38:    571.33   0.006360   32.14  0.003474  ( 0.049032  0.032710  0.000148)
 39:    587.31   0.004024   20.34  0.002138  ( 0.010764 -0.004123 -0.044781)
 40:    602.07   0.003699   18.69  0.001917  ( 0.022604 -0.036323  0.009329)
 41:    628.02   0.005077   25.66  0.002523  (-0.038451 -0.028432  0.015361)
 42:    639.66   0.002524   12.75  0.001231  (-0.013962 -0.030734  0.009574)
 43:    648.43   0.013578   68.62  0.006535  (-0.010203  0.080188 -0.000571)
 44:    659.86   0.002165   10.94  0.001024  (-0.018210  0.026310 -0.000117)
 45:    698.77   0.008085   40.86  0.003611  ( 0.025489 -0.044733  0.030984)
 46:    717.49   0.054967  277.78  0.023907  ( 0.012671 -0.152698  0.020733)
 47:    756.57   0.004234   21.40  0.001747  (-0.008901 -0.015819  0.037644)
 48:    764.59   0.016384   82.80  0.006687  ( 0.028317 -0.072800 -0.024193)
 49:    767.44   0.009603   48.53  0.003905  (-0.012688  0.043821  0.042702)
 50:    776.81   0.004631   23.41  0.001861  ( 0.010787 -0.034534 -0.023486)
 51:    785.87   0.002701   13.65  0.001073  (-0.010247 -0.023523  0.020354)
 52:    813.22   0.001211    6.12  0.000465  (-0.000999 -0.018174  0.011543)
 53:    825.55   0.004390   22.19  0.001660  (-0.026891 -0.007002  0.029791)
 54:    841.63   0.004028   20.36  0.001494  (-0.003965 -0.038266  0.003678)
 55:    871.69   0.001575    7.96  0.000564  (-0.012614 -0.020106  0.000671)
 56:    890.21   0.008248   41.68  0.002891  ( 0.009676 -0.050872  0.014481)
 57:    890.74   0.009429   47.65  0.003303  ( 0.056326  0.010436 -0.004674)
 58:    939.37   0.015283   77.23  0.005077  (-0.027508  0.065720  0.001094)
 59:    955.73   0.058200  294.12  0.019003  (-0.029298  0.132368 -0.024971)
 60:    960.09   0.006004   30.34  0.001951  ( 0.012257 -0.034694  0.024443)
 61:    964.14   0.002348   11.86  0.000760  (-0.025264 -0.006062 -0.009210)
 62:    970.84   0.000350    1.77  0.000113  ( 0.001463 -0.010451 -0.001120)
 63:    987.68   0.002774   14.02  0.000877  (-0.025824  0.011312  0.009039)
 64:    991.50   0.002192   11.08  0.000690  ( 0.022705 -0.011212 -0.006978)
 65:   1012.69   0.000717    3.62  0.000221  ( 0.007995  0.010961  0.006080)
 66:   1044.54   0.006007   30.36  0.001795  (-0.034959 -0.013354 -0.019853)
 67:   1063.58   0.000756    3.82  0.000222  ( 0.014358  0.003833 -0.001004)
 68:   1068.92   0.007162   36.19  0.002091  ( 0.025315 -0.002808  0.037976)
 69:   1071.30   0.013028   65.84  0.003795  ( 0.034712 -0.045112  0.023557)
 70:   1086.15   0.003948   19.95  0.001134  ( 0.001000 -0.019861  0.027183)
 71:   1095.44   0.014597   73.77  0.004158  ( 0.024219  0.051019 -0.031125)
 72:   1120.12   0.005458   27.58  0.001521  ( 0.009491 -0.036748 -0.008949)
 73:   1145.73   0.011229   56.75  0.003058  ( 0.006874 -0.024281  0.049209)
 74:   1170.19   0.008318   42.04  0.002218  ( 0.015465 -0.044028 -0.006379)
 75:   1172.40   0.000403    2.04  0.000107  ( 0.002490  0.004098  0.009181)
 76:   1172.82   0.000022    0.11  0.000006  (-0.000304 -0.001804 -0.001583)
 77:   1174.64   0.000938    4.74  0.000249  (-0.007982  0.007638 -0.011280)
 78:   1185.83   0.030968  156.50  0.008149  ( 0.059613 -0.062822  0.025479)
 79:   1203.07   0.016369   82.72  0.004246  ( 0.054998 -0.034927 -0.001078)
 80:   1205.91   0.005954   30.09  0.001541  ( 0.011525 -0.034012  0.015848)
 81:   1207.71   0.005729   28.95  0.001480  ( 0.020775 -0.021032  0.024626)
 82:   1218.20   0.018137   91.66  0.004646  ( 0.016155 -0.065212  0.011517)
 83:   1230.23   0.021286  107.57  0.005400  (-0.048127  0.054787  0.009039)
 84:   1247.07   0.000865    4.37  0.000217  (-0.005040  0.010404 -0.009106)
 85:   1281.44   0.028608  144.57  0.006967  (-0.021568  0.066703 -0.045302)
 86:   1295.63   0.020453  103.36  0.004926  ( 0.032237 -0.043200  0.044953)
 87:   1301.73   0.007126   36.01  0.001708  ( 0.021787 -0.017288 -0.030573)
 88:   1305.83   0.084866  428.88  0.020281  (-0.028416 -0.114199  0.080200)
 89:   1327.76   0.009288   46.94  0.002183  ( 0.008305 -0.031205  0.033769)
 90:   1332.51   0.036609  185.01  0.008574  (-0.035897  0.085118 -0.006319)
 91:   1355.90   0.009990   50.49  0.002299  (-0.026508  0.039859 -0.002802)
 92:   1371.93   0.015963   80.67  0.003631  ( 0.026457 -0.054070 -0.002748)
 93:   1385.57   0.008413   42.52  0.001895  (-0.012197  0.009769  0.040628)
 94:   1392.35   0.077183  390.05  0.017299  (-0.047607  0.121446 -0.016830)
 95:   1399.60   0.008492   42.91  0.001893  ( 0.008468  0.006782 -0.042139)
 96:   1426.49   0.033953  171.58  0.007428  ( 0.002777 -0.064123  0.057517)
 97:   1451.92   0.063487  320.84  0.013645  ( 0.030920 -0.059840 -0.095439)
 98:   1461.25   0.013027   65.83  0.002782  (-0.006708 -0.027162 -0.044714)
 99:   1465.06   0.005632   28.46  0.001200  (-0.007312 -0.003903 -0.033629)
100:   1465.48   0.005577   28.18  0.001188  ( 0.004518  0.026681 -0.021336)
101:   1467.16   0.006088   30.77  0.001295  ( 0.024089 -0.025861  0.006776)
102:   1473.51   0.006035   30.50  0.001278  ( 0.018274 -0.021548 -0.021906)
103:   1476.76   0.029531  149.24  0.006240  (-0.007399  0.078488  0.005016)
104:   1477.70   0.005491   27.75  0.001160  (-0.015357  0.029512  0.007264)
105:   1487.39   0.007407   37.43  0.001554  (-0.025405 -0.026866  0.013670)
106:   1496.31   0.019702   99.56  0.004109  ( 0.048860 -0.009151  0.040470)
107:   1499.02   0.013097   66.19  0.002726  (-0.042751 -0.025432  0.015875)
108:   1514.80   0.000629    3.18  0.000130  ( 0.005575  0.008119  0.005706)
109:   1540.96   0.031535  159.36  0.006386  (-0.038636 -0.052493  0.046239)
110:   1606.30   0.033416  168.87  0.006492  (-0.037497 -0.055585 -0.044677)
111:   1650.20   0.007716   38.99  0.001459  ( 0.000112  0.024700 -0.029138)
112:   1664.91   0.008565   43.28  0.001605  ( 0.024245  0.027986 -0.015308)
113:   1680.88   0.036153  182.70  0.006712  ( 0.075442  0.024305 -0.020729)
114:   1788.87   0.118033  596.49  0.020591  ( 0.114805  0.027384 -0.081612)
115:   3042.75   0.011453   57.88  0.001175  (-0.011983  0.020637 -0.024600)
116:   3043.95   0.012190   61.60  0.001250  (-0.016793 -0.024884 -0.018668)
117:   3074.50   0.006466   32.68  0.000656  ( 0.014755 -0.020686  0.003266)
118:   3109.22   0.000982    4.96  0.000099  ( 0.000767 -0.009277  0.003450)
119:   3116.85   0.006990   35.32  0.000700  (-0.008488  0.019306  0.015971)
120:   3124.27   0.001112    5.62  0.000111  (-0.009916  0.003179  0.001620)
121:   3126.90   0.003354   16.95  0.000335  (-0.006539 -0.007081  0.015552)
122:   3158.46   0.003652   18.45  0.000361  (-0.008386 -0.008703 -0.014653)
123:   3166.65   0.003147   15.90  0.000310  ( 0.013337  0.010089 -0.005516)
124:   3177.60   0.000757    3.83  0.000074  ( 0.007866 -0.001058  0.003375)
125:   3184.70   0.000981    4.96  0.000096  ( 0.006614 -0.002540  0.006780)
126:   3191.26   0.002090   10.56  0.000204  ( 0.007965  0.008488 -0.008301)
127:   3196.44   0.001687    8.53  0.000165  (-0.010897  0.000694 -0.006744)
128:   3205.71   0.003882   19.62  0.000378  ( 0.018374 -0.006346  0.000132)
129:   3208.02   0.001101    5.56  0.000107  (-0.004098  0.005482 -0.007759)
130:   3213.52   0.003378   17.07  0.000328  ( 0.010629  0.011660 -0.008895)
131:   3229.06   0.000527    2.66  0.000051  (-0.004068 -0.002014  0.005506)
132:   3231.59   0.000386    1.95  0.000037  (-0.004149  0.001990 -0.004017)
133:   3232.96   0.000266    1.35  0.000026  (-0.004858 -0.000381  0.001398)
134:   3248.39   0.000024    0.12  0.000002  (-0.000761 -0.001234  0.000396)

--------------------------
THERMOCHEMISTRY AT 298.15K
--------------------------

Temperature         ... 298.15 K
Pressure            ... 1.00 atm
Total Mass          ... 344.37 AMU

Throughout the following assumptions are being made:
  (1) The electronic state is orbitally nondegenerate
  (2) There are no thermally accessible electronically excited states
  (3) Hindered rotations indicated by low frequency modes are not
      treated as such but are treated as vibrations and this may
      cause some error
  (4) All equations used are the standard statistical mechanics
      equations for an ideal gas
  (5) All vibrations are strictly harmonic

freq.      34.16  E(vib)   ...       0.55
freq.      52.65  E(vib)   ...       0.52
freq.      73.23  E(vib)   ...       0.49
freq.      85.66  E(vib)   ...       0.48
freq.      89.55  E(vib)   ...       0.47
freq.      91.38  E(vib)   ...       0.47
freq.     105.81  E(vib)   ...       0.45
freq.     116.72  E(vib)   ...       0.44
freq.     118.42  E(vib)   ...       0.44
freq.     127.60  E(vib)   ...       0.43
freq.     148.16  E(vib)   ...       0.41
freq.     151.64  E(vib)   ...       0.40
freq.     167.40  E(vib)   ...       0.39
freq.     179.05  E(vib)   ...       0.37
freq.     202.60  E(vib)   ...       0.35
freq.     213.65  E(vib)   ...       0.34
freq.     216.92  E(vib)   ...       0.34
freq.     235.13  E(vib)   ...       0.32
freq.     262.14  E(vib)   ...       0.29
freq.     281.54  E(vib)   ...       0.28
freq.     297.22  E(vib)   ...       0.27
freq.     305.11  E(vib)   ...       0.26
freq.     321.02  E(vib)   ...       0.25
freq.     331.16  E(vib)   ...       0.24
freq.     380.72  E(vib)   ...       0.21
freq.     385.66  E(vib)   ...       0.20
freq.     439.10  E(vib)   ...       0.17
freq.     479.72  E(vib)   ...       0.15
freq.     483.24  E(vib)   ...       0.15
freq.     506.30  E(vib)   ...       0.14
freq.     548.50  E(vib)   ...       0.12
freq.     571.33  E(vib)   ...       0.11
freq.     587.31  E(vib)   ...       0.10
freq.     602.07  E(vib)   ...       0.10
freq.     628.02  E(vib)   ...       0.09
freq.     639.66  E(vib)   ...       0.09
freq.     648.43  E(vib)   ...       0.08
freq.     659.86  E(vib)   ...       0.08
freq.     698.77  E(vib)   ...       0.07
freq.     717.49  E(vib)   ...       0.07
freq.     756.57  E(vib)   ...       0.06
freq.     764.59  E(vib)   ...       0.06
freq.     767.44  E(vib)   ...       0.06
freq.     776.81  E(vib)   ...       0.05
freq.     785.87  E(vib)   ...       0.05
freq.     813.22  E(vib)   ...       0.05
freq.     825.55  E(vib)   ...       0.04
freq.     841.63  E(vib)   ...       0.04
freq.     871.69  E(vib)   ...       0.04
freq.     890.21  E(vib)   ...       0.04
freq.     890.74  E(vib)   ...       0.04
freq.     939.37  E(vib)   ...       0.03
freq.     955.73  E(vib)   ...       0.03
freq.     960.09  E(vib)   ...       0.03
freq.     964.14  E(vib)   ...       0.03
freq.     970.84  E(vib)   ...       0.03
freq.     987.68  E(vib)   ...       0.02
freq.     991.50  E(vib)   ...       0.02
freq.    1012.69  E(vib)   ...       0.02
freq.    1044.54  E(vib)   ...       0.02
freq.    1063.58  E(vib)   ...       0.02
freq.    1068.92  E(vib)   ...       0.02
freq.    1071.30  E(vib)   ...       0.02
freq.    1086.15  E(vib)   ...       0.02
freq.    1095.44  E(vib)   ...       0.02
freq.    1120.12  E(vib)   ...       0.01
freq.    1145.73  E(vib)   ...       0.01
freq.    1170.19  E(vib)   ...       0.01
freq.    1172.40  E(vib)   ...       0.01
freq.    1172.82  E(vib)   ...       0.01
freq.    1174.64  E(vib)   ...       0.01
freq.    1185.83  E(vib)   ...       0.01
freq.    1203.07  E(vib)   ...       0.01
freq.    1205.91  E(vib)   ...       0.01
freq.    1207.71  E(vib)   ...       0.01
freq.    1218.20  E(vib)   ...       0.01
freq.    1230.23  E(vib)   ...       0.01
freq.    1247.07  E(vib)   ...       0.01
freq.    1281.44  E(vib)   ...       0.01
freq.    1295.63  E(vib)   ...       0.01
freq.    1301.73  E(vib)   ...       0.01
freq.    1305.83  E(vib)   ...       0.01
freq.    1327.76  E(vib)   ...       0.01
freq.    1332.51  E(vib)   ...       0.01
freq.    1355.90  E(vib)   ...       0.01
freq.    1371.93  E(vib)   ...       0.01
freq.    1385.57  E(vib)   ...       0.00
freq.    1392.35  E(vib)   ...       0.00
freq.    1399.60  E(vib)   ...       0.00
freq.    1426.49  E(vib)   ...       0.00
freq.    1451.92  E(vib)   ...       0.00
freq.    1461.25  E(vib)   ...       0.00
freq.    1465.06  E(vib)   ...       0.00
freq.    1465.48  E(vib)   ...       0.00
freq.    1467.16  E(vib)   ...       0.00
freq.    1473.51  E(vib)   ...       0.00
freq.    1476.76  E(vib)   ...       0.00
freq.    1477.70  E(vib)   ...       0.00
freq.    1487.39  E(vib)   ...       0.00
freq.    1496.31  E(vib)   ...       0.00
freq.    1499.02  E(vib)   ...       0.00
freq.    1514.80  E(vib)   ...       0.00
freq.    1540.96  E(vib)   ...       0.00
freq.    1606.30  E(vib)   ...       0.00
freq.    1650.20  E(vib)   ...       0.00
freq.    1664.91  E(vib)   ...       0.00
freq.    1680.88  E(vib)   ...       0.00
freq.    1788.87  E(vib)   ...       0.00
freq.    3042.75  E(vib)   ...       0.00
freq.    3043.95  E(vib)   ...       0.00
freq.    3074.50  E(vib)   ...       0.00
freq.    3109.22  E(vib)   ...       0.00
freq.    3116.85  E(vib)   ...       0.00
freq.    3124.27  E(vib)   ...       0.00
freq.    3126.90  E(vib)   ...       0.00
freq.    3158.46  E(vib)   ...       0.00
freq.    3166.65  E(vib)   ...       0.00
freq.    3177.60  E(vib)   ...       0.00
freq.    3184.70  E(vib)   ...       0.00
freq.    3191.26  E(vib)   ...       0.00
freq.    3196.44  E(vib)   ...       0.00
freq.    3205.71  E(vib)   ...       0.00
freq.    3208.02  E(vib)   ...       0.00
freq.    3213.52  E(vib)   ...       0.00
freq.    3229.06  E(vib)   ...       0.00
freq.    3231.59  E(vib)   ...       0.00
freq.    3232.96  E(vib)   ...       0.00
freq.    3248.39  E(vib)   ...       0.00

------------
INNER ENERGY
------------

The inner energy is: U= E(el) + E(ZPE) + E(vib) + E(rot) + E(trans)
    E(el)   - is the total energy from the electronic structure calculation
              = E(kin-el) + E(nuc-el) + E(el-el) + E(nuc-nuc)
    E(ZPE)  - the the zero temperature vibrational energy from the frequency calculation
    E(vib)  - the the finite temperature correction to E(ZPE) due to population
              of excited vibrational states
    E(rot)  - is the rotational thermal energy
    E(trans)- is the translational thermal energy

Summary of contributions to the inner energy U:
Electronic energy                ...  -1182.61917515 Eh

Rotational constants in cm-1:     0.011730     0.007269     0.005739

                             ****ORCA TERMINATED NORMALLY****
TOTAL RUN TIME: 0 days 3 hours 0 minutes 41 seconds 189 msec
