                         Program Version 5.0.4 -  RELEASE  -
|  1> %pal nprocs 24 end
|  2> %maxcore 3500
|  3> ! PBE0 D3BJ def2-TZVP TightSCF OPTTS FREQ TightOpt
|  4> ! CPCM(dmso)
|  5> %scf
|  6> MaxIter 800
|  7> end
|  8> %geom
|  9> MaxIter 800
| 10> MaxStep 0.2
| 11> end
| 12> *xyz 0 1
| 13>
| 14> C       4.19265700      0.61538100      0.38445700
| 15> C       3.99438900      1.25723700     -0.86318800
| 16> C       2.72379300      1.41478000     -1.31019700
| 17> N       1.66411000      1.02411600     -0.56325400
| 18> C       1.80346800      0.36377700      0.64128200
| 19> C       3.13352200      0.20214200      1.13163700
| 20> C       0.33422300      0.92912600     -1.09759100
| 21> C      -0.52793300      2.07132900     -0.58328500
| 22> O      -0.14382700      2.93618300      0.16079700
| 23> O      -1.71705200      2.04398900     -1.16024000
| 24> C      -2.63232500      3.07333900     -0.77401000
| 25> H       5.19986100      0.48774400      0.76444500
| 26> H       2.47978400      1.85583600     -2.26807900
| 27> H       1.00420600      0.54152800      1.35281300
| 28> H       3.26738900     -0.23881500      2.11030000
| 29> H       0.38623100      1.07943200     -2.17731500
| 30> H      -2.22913400      4.05302300     -1.02987500
| 31> H      -2.82305200      3.02142300      0.29801500
| 32> C       0.82984500     -1.27878300      0.06693100
| 33> C      -0.15923000     -0.56753000     -0.84697400
| 34> C      -1.59660700     -0.77135400     -0.45489200
| 35> C      -2.41366400     -1.53888200     -1.27035400
| 36> C      -3.73788600     -1.79878600     -0.93950100
| 37> C      -4.25444600     -1.27936100      0.23458500
| 38> C      -3.46083800     -0.50363000      1.07079500
| 39> C      -2.14039200     -0.24981000      0.72584600
| 40> O      -1.30603800      0.51185200      1.46232400
| 41> C      -1.76945700      1.04336600      2.68772000
| 42> N       1.88106200     -1.94458800     -0.61698300
| 43> O       2.12060500     -1.61471600     -1.77967100
| 44> H      -0.04268600     -1.04107800     -1.82027900
| 45> H      -1.99812000     -1.94412100     -2.18716500
| 46> H      -4.35420500     -2.40225600     -1.59485800
| 47> H      -5.28471400     -1.47157600      0.51203900
| 48> H      -3.87672000     -0.10062600      1.98433700
| 49> H      -2.04147500      0.24266600      3.38091900
| 50> H      -2.62817200      1.70182500      2.53258000
| 51> H      -0.94110900      1.61709000      3.09814100
| 52> O       2.58898400     -2.73475700      0.00377800
| 53> H      -3.54451100      2.87840500     -1.33131800
| 54> H       4.82397800      1.60678100     -1.46031700
| 55> C       0.40408400     -1.94958200      1.24141600
| 56> C       0.04948200     -2.46637700      2.26940400
| 57> H      -0.27803500     -2.93624600      3.16940300
| 58> *
| 59>
| 60>                          ****END OF INPUT****
 Total Charge           Charge          ....    0
 Multiplicity           Mult            ....    1
 Number of Electrons    NEL             ....  186
Dispersion correction           -0.060896885
FINAL SINGLE POINT ENERGY     -1219.419563676526
Dispersion correction            ... done
Dispersion correction           -0.060662580
FINAL SINGLE POINT ENERGY     -1219.418996650490
Dispersion correction            ... done
Dispersion correction           -0.060968817
FINAL SINGLE POINT ENERGY     -1219.419427562588
Dispersion correction            ... done
FINAL SINGLE POINT ENERGY     -1219.419334090539
FINAL SINGLE POINT ENERGY     -1219.418590649480
FINAL SINGLE POINT ENERGY     -1219.418949648836
FINAL SINGLE POINT ENERGY     -1219.419036804136
FINAL SINGLE POINT ENERGY     -1219.419418401792
FINAL SINGLE POINT ENERGY     -1219.419451254276
FINAL SINGLE POINT ENERGY     -1219.419825656288
FINAL SINGLE POINT ENERGY     -1219.419451214308
FINAL SINGLE POINT ENERGY     -1219.419503765175
FINAL SINGLE POINT ENERGY     -1219.419523452363
FINAL SINGLE POINT ENERGY     -1219.419529198961
FINAL SINGLE POINT ENERGY     -1219.419527819109
FINAL SINGLE POINT ENERGY     -1219.419529288786
FINAL SINGLE POINT ENERGY     -1219.419528830930
Dispersion correction           -0.060863397
FINAL SINGLE POINT ENERGY     -1219.419528319994
Dispersion correction            ... done
Dispersion correction           -0.060864432
FINAL SINGLE POINT ENERGY     -1219.419527546655
Dispersion correction            ... done
                    ***********************HURRAY********************

CARTESIAN COORDINATES (ANGSTROEM)
---------------------------------
  C      4.204527    0.592671    0.350810
  C      3.997716    1.238851   -0.894475
  C      2.723732    1.409339   -1.325649
  N      1.668529    1.028355   -0.566082
  C      1.814657    0.362148    0.636961
  C      3.151605    0.189439    1.110987
  C      0.333100    0.938441   -1.086847
  C     -0.522838    2.076359   -0.553069
  O     -0.135841    2.923645    0.209303
  O     -1.710531    2.066570   -1.134516
  C     -2.624351    3.090576   -0.732248
  H      5.215120    0.453703    0.717877
  H      2.472010    1.854164   -2.280059
  H      1.028900    0.556049    1.360242
  H      3.293886   -0.255418    2.086793
  H      0.371012    1.094377   -2.166280
  H     -2.217063    4.074138   -0.966060
  H     -2.821417    3.017646    0.337369
  C      0.833393   -1.265823    0.080772
  C     -0.155506   -0.560455   -0.839393
  C     -1.595347   -0.770293   -0.460313
  C     -2.403604   -1.536456   -1.286558
  C     -3.730455   -1.800099   -0.968704
  C     -4.258563   -1.286499    0.203106
  C     -3.473901   -0.512504    1.049797
  C     -2.150745   -0.253752    0.717622
  O     -1.324985    0.507731    1.463935
  C     -1.799658    1.032668    2.687589
  N      1.879669   -1.948347   -0.602222
  O      2.113970   -1.636230   -1.769724
  H     -0.028847   -1.033183   -1.811791
  H     -1.978985   -1.936609   -2.201540
  H     -4.339942   -2.401323   -1.632432
  H     -5.290869   -1.482138    0.470513
  H     -3.898674   -0.114750    1.961640
  H     -2.067486    0.228086    3.378024
  H     -2.664045    1.683071    2.529358
  H     -0.979025    1.613607    3.103247
  O      2.587923   -2.729505    0.027603
  H     -3.534248    2.909930   -1.298151
  H      4.823802    1.580732   -1.500894
  C      0.404707   -1.928349    1.259727
  C      0.048532   -2.435806    2.291640
  H     -0.279819   -2.895265    3.196710

 Multiplicity           Mult            ....    1
 Number of Electrons    NEL             ....  186
 Basis Dimension        Dim             ....  914

ORBITAL ENERGIES
----------------

  NO   OCC          E(Eh)            E(eV)
   0   2.0000     -19.265815      -524.2495
   1   2.0000     -19.248027      -523.7654
   2   2.0000     -19.224359      -523.1214
   3   2.0000     -19.223892      -523.1087
   4   2.0000     -19.204641      -522.5849
   5   2.0000     -14.603932      -397.3932
   6   2.0000     -14.461631      -393.5210
   7   2.0000     -10.364464      -282.0314
   8   2.0000     -10.302271      -280.3390
   9   2.0000     -10.297711      -280.2150
  10   2.0000     -10.297171      -280.2003
  11   2.0000     -10.290514      -280.0191
  12   2.0000     -10.283292      -279.8226
  13   2.0000     -10.271867      -279.5117
  14   2.0000     -10.267833      -279.4019
  15   2.0000     -10.267743      -279.3995
  16   2.0000     -10.249872      -278.9132
  17   2.0000     -10.240696      -278.6635
  18   2.0000     -10.237758      -278.5836
  19   2.0000     -10.237135      -278.5666
  20   2.0000     -10.229818      -278.3675
  21   2.0000     -10.229804      -278.3671
  22   2.0000     -10.228998      -278.3452
  23   2.0000     -10.225621      -278.2533
  24   2.0000     -10.224493      -278.2226
  25   2.0000     -10.221106      -278.1304
  26   2.0000      -1.253236       -34.1023
  27   2.0000      -1.157318       -31.4922
  28   2.0000      -1.112219       -30.2650
  29   2.0000      -1.071801       -29.1652
  30   2.0000      -1.066389       -29.0179
  31   2.0000      -1.044369       -28.4187
  32   2.0000      -0.904650       -24.6168
  33   2.0000      -0.880227       -23.9522
  34   2.0000      -0.867781       -23.6135
  35   2.0000      -0.818028       -22.2597
  36   2.0000      -0.813128       -22.1263
  37   2.0000      -0.788603       -21.4590
  38   2.0000      -0.780480       -21.2379
  39   2.0000      -0.772365       -21.0171
  40   2.0000      -0.750269       -20.4159
  41   2.0000      -0.725041       -19.7294
  42   2.0000      -0.707083       -19.2407
  43   2.0000      -0.681890       -18.5552
  44   2.0000      -0.660981       -17.9862
  45   2.0000      -0.640305       -17.4236
  46   2.0000      -0.631044       -17.1716
  47   2.0000      -0.613756       -16.7011
  48   2.0000      -0.601799       -16.3758
  49   2.0000      -0.578600       -15.7445
  50   2.0000      -0.569394       -15.4940
  51   2.0000      -0.558334       -15.1930
  52   2.0000      -0.554281       -15.0828
  53   2.0000      -0.546400       -14.8683
  54   2.0000      -0.535667       -14.5762
  55   2.0000      -0.531389       -14.4598
  56   2.0000      -0.525868       -14.3096
  57   2.0000      -0.520936       -14.1754
  58   2.0000      -0.514293       -13.9946
  59   2.0000      -0.505875       -13.7656
  60   2.0000      -0.498995       -13.5783
  61   2.0000      -0.490435       -13.3454
  62   2.0000      -0.483926       -13.1683
  63   2.0000      -0.475105       -12.9283
  64   2.0000      -0.470406       -12.8004
  65   2.0000      -0.465084       -12.6556
  66   2.0000      -0.461888       -12.5686
  67   2.0000      -0.447198       -12.1689
  68   2.0000      -0.443382       -12.0650
  69   2.0000      -0.430714       -11.7203
  70   2.0000      -0.423969       -11.5368
  71   2.0000      -0.406541       -11.0625
  72   2.0000      -0.403784       -10.9875
  73   2.0000      -0.397799       -10.8247
  74   2.0000      -0.389671       -10.6035
  75   2.0000      -0.382862       -10.4182
  76   2.0000      -0.381491       -10.3809
  77   2.0000      -0.377335       -10.2678
  78   2.0000      -0.371258       -10.1024
  79   2.0000      -0.356632        -9.7045
  80   2.0000      -0.345786        -9.4093
  81   2.0000      -0.344698        -9.3797
  82   2.0000      -0.333892        -9.0857
  83   2.0000      -0.331759        -9.0276
  84   2.0000      -0.327306        -8.9065
  85   2.0000      -0.316404        -8.6098
  86   2.0000      -0.314395        -8.5551
  87   2.0000      -0.305024        -8.3001
  88   2.0000      -0.295092        -8.0299
  89   2.0000      -0.287913        -7.8345
  90   2.0000      -0.271490        -7.3876
  91   2.0000      -0.240408        -6.5418
  92   2.0000      -0.211593        -5.7577
  93   0.0000      -0.068392        -1.8610
  94   0.0000      -0.038821        -1.0564
  95   0.0000      -0.015649        -0.4258
  96   0.0000      -0.004664        -0.1269
  97   0.0000       0.002006         0.0546

MULLIKEN ATOMIC CHARGES
-----------------------
   0 C :   -0.103164
   1 C :   -0.182404
   2 C :   -0.103610
   3 N :    0.130447
   4 C :   -0.049643
   5 C :   -0.259784
   6 C :   -0.054615
   7 C :    0.303944
   8 O :   -0.379605
   9 O :   -0.213967
  10 C :   -0.259746
  11 H :    0.164842
  12 H :    0.184160
  13 H :    0.182727
  14 H :    0.160104
  15 H :    0.158464
  16 H :    0.158943
  17 H :    0.155371
  18 C :   -0.179344
  19 C :    0.219061
  20 C :    0.021086
  21 C :   -0.254462
  22 C :   -0.201645
  23 C :   -0.147375
  24 C :   -0.308247
  25 C :    0.250407
  26 O :   -0.251312
  27 C :   -0.292134
  28 N :    0.495979
  29 O :   -0.423275
  30 H :    0.123380
  31 H :    0.145420
  32 H :    0.145320
  33 H :    0.150682
  34 H :    0.164999
  35 H :    0.157603
  36 H :    0.156672
  37 H :    0.162350
  38 O :   -0.405201
  39 H :    0.163006
  40 H :    0.170578
  41 C :   -0.002519
  42 C :   -0.264576
  43 H :    0.211084
Sum of atomic charges:   -0.0000000

LOEWDIN ATOMIC CHARGES
----------------------
   0 C :   -0.115985
   1 C :   -0.176435
   2 C :   -0.136086
   3 N :    0.294609
   4 C :   -0.132386
   5 C :   -0.143748
   6 C :   -0.153759
   7 C :   -0.490876
   8 O :    0.091391
   9 O :    0.283556
  10 C :   -0.299628
  11 H :    0.161956
  12 H :    0.166672
  13 H :    0.174436
  14 H :    0.161038
  15 H :    0.189490
  16 H :    0.120745
  17 H :    0.119839
  18 C :   -0.209964
  19 C :   -0.125199
  20 C :   -0.107864
  21 C :   -0.109723
  22 C :   -0.166166
  23 C :   -0.145190
  24 C :   -0.138500
  25 C :   -0.238179
  26 O :    0.275215
  27 C :   -0.328180
  28 N :   -0.041655
  29 O :   -0.087399
  30 H :    0.187211
  31 H :    0.159667
  32 H :    0.151992
  33 H :    0.154455
  34 H :    0.161113
  35 H :    0.120055
  36 H :    0.117951
  37 H :    0.122879
  38 O :   -0.086508
  39 H :    0.123756
  40 H :    0.159281
  41 C :   -0.116101
  42 C :   -0.088543
  43 H :    0.140768

  Mayer bond orders larger than 0.100000
B(  0-C ,  1-C ) :   1.2079 B(  0-C ,  5-C ) :   1.6491 B(  0-C , 11-H ) :   0.9546
B(  1-C ,  2-C ) :   1.5871 B(  1-C , 40-H ) :   0.9582 B(  2-C ,  3-N ) :   1.2099
B(  2-C , 12-H ) :   0.9435 B(  3-N ,  4-C ) :   1.1100 B(  3-N ,  6-C ) :   0.9488
B(  4-C ,  5-C ) :   1.1504 B(  4-C , 13-H ) :   0.9258 B(  4-C , 18-C ) :   0.4452
B(  5-C , 14-H ) :   0.9675 B(  6-C ,  7-C ) :   0.9791 B(  6-C , 15-H ) :   0.9062
B(  6-C , 19-C ) :   0.9396 B(  6-C , 20-C ) :   0.1058 B(  7-C ,  8-O ) :   2.0143
B(  7-C ,  9-O ) :   1.2513 B(  9-O , 10-C ) :   0.8828 B( 10-C , 16-H ) :   0.9626
B( 10-C , 17-H ) :   0.9695 B( 10-C , 39-H ) :   0.9647 B( 18-C , 19-C ) :   1.0453
B( 18-C , 28-N ) :   1.0788 B( 18-C , 41-C ) :   1.2477 B( 19-C , 20-C ) :   0.7304
B( 19-C , 30-H ) :   0.8884 B( 20-C , 21-C ) :   1.3732 B( 20-C , 25-C ) :   1.2404
B( 21-C , 22-C ) :   1.3999 B( 21-C , 31-H ) :   0.9804 B( 22-C , 23-C ) :   1.4029
B( 22-C , 32-H ) :   0.9841 B( 23-C , 24-C ) :   1.3892 B( 23-C , 33-H ) :   0.9704
B( 24-C , 25-C ) :   1.3883 B( 24-C , 34-H ) :   0.9605 B( 25-C , 26-O ) :   1.0730
B( 26-O , 27-C ) :   0.9230 B( 27-C , 35-H ) :   0.9604 B( 27-C , 36-H ) :   0.9616
B( 27-C , 37-H ) :   0.9644 B( 28-N , 29-O ) :   1.4770 B( 28-N , 38-O ) :   1.5406
B( 29-O , 38-O ) :   0.1363 B( 41-C , 42-C ) :   2.6084 B( 42-C , 43-H ) :   0.9983

Dispersion correction           -0.060865435
FINAL SINGLE POINT ENERGY     -1219.419526981162

DIPOLE MOMENT
-------------
                                X             Y             Z
Electronic contribution:      9.71577      -5.91297      -4.67619
Nuclear contribution   :    -11.99374       8.53966       5.09479
                        -----------------------------------------
Total Dipole Moment    :     -2.27797       2.62669       0.41860
                        -----------------------------------------
Magnitude (a.u.)       :      3.50198
Magnitude (Debye)      :      8.90133

Dispersion correction in the Hessian             ... done   (      0.8 sec)

VIBRATIONAL FREQUENCIES
-----------------------

Scaling factor for frequencies =  1.000000000  (already applied!)

   0:         0.00 cm**-1
   1:         0.00 cm**-1
   2:         0.00 cm**-1
   3:         0.00 cm**-1
   4:         0.00 cm**-1
   5:         0.00 cm**-1
   6:      -409.59 cm**-1 ***imaginary mode***
   7:        24.78 cm**-1
   8:        48.83 cm**-1
   9:        68.99 cm**-1
  10:        83.91 cm**-1
  11:        86.19 cm**-1
  12:        89.13 cm**-1
  13:        92.44 cm**-1
  14:       108.71 cm**-1
  15:       117.62 cm**-1
  16:       120.83 cm**-1
  17:       127.05 cm**-1
  18:       135.99 cm**-1
  19:       145.90 cm**-1
  20:       162.20 cm**-1
  21:       187.61 cm**-1
  22:       206.85 cm**-1
  23:       215.33 cm**-1
  24:       239.42 cm**-1
  25:       250.34 cm**-1
  26:       272.95 cm**-1
  27:       293.02 cm**-1
  28:       295.20 cm**-1
  29:       315.39 cm**-1
  30:       335.13 cm**-1
  31:       369.97 cm**-1
  32:       421.98 cm**-1
  33:       449.87 cm**-1
  34:       469.14 cm**-1
  35:       490.05 cm**-1
  36:       495.87 cm**-1
  37:       516.97 cm**-1
  38:       547.91 cm**-1
  39:       555.79 cm**-1
  40:       574.56 cm**-1
  41:       588.46 cm**-1
  42:       621.51 cm**-1
  43:       623.85 cm**-1
  44:       634.85 cm**-1
  45:       646.56 cm**-1
  46:       671.89 cm**-1
  47:       702.92 cm**-1
  48:       713.41 cm**-1
  49:       717.87 cm**-1
  50:       750.20 cm**-1
  51:       765.45 cm**-1
  52:       772.71 cm**-1
  53:       790.92 cm**-1
  54:       795.53 cm**-1
  55:       821.84 cm**-1
  56:       830.13 cm**-1
  57:       835.41 cm**-1
  58:       869.07 cm**-1
  59:       878.99 cm**-1
  60:       909.98 cm**-1
  61:       937.38 cm**-1
  62:       956.12 cm**-1
  63:       964.46 cm**-1
  64:       987.63 cm**-1
  65:       996.13 cm**-1
  66:      1003.25 cm**-1
  67:      1013.18 cm**-1
  68:      1047.07 cm**-1
  69:      1052.81 cm**-1
  70:      1072.41 cm**-1
  71:      1084.18 cm**-1
  72:      1090.75 cm**-1
  73:      1098.59 cm**-1
  74:      1147.90 cm**-1
  75:      1162.25 cm**-1
  76:      1171.44 cm**-1
  77:      1172.23 cm**-1
  78:      1174.28 cm**-1
  79:      1176.32 cm**-1
  80:      1198.92 cm**-1
  81:      1206.82 cm**-1
  82:      1207.31 cm**-1
  83:      1222.56 cm**-1
  84:      1239.05 cm**-1
  85:      1240.48 cm**-1
  86:      1261.09 cm**-1
  87:      1270.75 cm**-1
  88:      1297.35 cm**-1
  89:      1308.80 cm**-1
  90:      1332.40 cm**-1
  91:      1345.09 cm**-1
  92:      1355.96 cm**-1
  93:      1369.36 cm**-1
  94:      1374.64 cm**-1
  95:      1389.69 cm**-1
  96:      1418.95 cm**-1
  97:      1465.06 cm**-1
  98:      1465.38 cm**-1
  99:      1469.09 cm**-1
 100:      1472.02 cm**-1
 101:      1474.83 cm**-1
 102:      1482.26 cm**-1
 103:      1483.44 cm**-1
 104:      1499.28 cm**-1
 105:      1512.10 cm**-1
 106:      1541.53 cm**-1
 107:      1547.47 cm**-1
 108:      1597.63 cm**-1
 109:      1651.82 cm**-1
 110:      1665.23 cm**-1
 111:      1686.21 cm**-1
 112:      1794.56 cm**-1
 113:      2210.96 cm**-1
 114:      3039.85 cm**-1
 115:      3074.43 cm**-1
 116:      3111.88 cm**-1
 117:      3112.49 cm**-1
 118:      3129.50 cm**-1
 119:      3158.87 cm**-1
 120:      3166.19 cm**-1
 121:      3168.36 cm**-1
 122:      3185.43 cm**-1
 123:      3190.95 cm**-1
 124:      3196.18 cm**-1
 125:      3203.22 cm**-1
 126:      3214.33 cm**-1
 127:      3224.44 cm**-1
 128:      3230.61 cm**-1
 129:      3231.10 cm**-1
 130:      3248.46 cm**-1
 131:      3452.13 cm**-1

IR SPECTRUM
-----------

 Mode   freq       eps      Int      T**2         TX        TY        TZ
       cm**-1   L/(mol*cm) km/mol    a.u.
----------------------------------------------------------------------------
  7:     24.78   0.000202    1.02  0.002547  ( 0.013733  0.009643 -0.047601)
  8:     48.83   0.000126    0.64  0.000808  ( 0.018414  0.015960  0.014640)
  9:     68.99   0.000788    3.98  0.003563  ( 0.011310 -0.044996  0.037562)
 10:     83.91   0.000866    4.38  0.003220  (-0.055182 -0.005285 -0.012111)
 11:     86.19   0.000135    0.68  0.000488  ( 0.018321 -0.011108 -0.005340)
 12:     89.13   0.000566    2.86  0.001983  ( 0.000581 -0.027757  0.034822)
 13:     92.44   0.000935    4.72  0.003156  (-0.009234  0.043535  0.034283)
 14:    108.71   0.000661    3.34  0.001898  ( 0.002790  0.042515 -0.009098)
 15:    117.62   0.000438    2.21  0.001163  ( 0.004061  0.031489 -0.012431)
 16:    120.83   0.000234    1.18  0.000603  (-0.013312  0.008131 -0.018975)
 17:    127.05   0.001124    5.68  0.002760  ( 0.030031  0.040946  0.013487)
 18:    135.99   0.000638    3.22  0.001463  ( 0.031066  0.015108 -0.016419)
 19:    145.90   0.000074    0.37  0.000158  ( 0.007490 -0.006043  0.008077)
 20:    162.20   0.000565    2.85  0.001086  ( 0.026213 -0.019835 -0.002358)
 21:    187.61   0.001922    9.71  0.003196  ( 0.007559 -0.054294  0.013829)
 22:    206.85   0.000688    3.47  0.001037  ( 0.007863  0.031207 -0.001286)
 23:    215.33   0.001400    7.07  0.002029  ( 0.002737 -0.011500  0.043464)
 24:    239.42   0.002367   11.96  0.003085  ( 0.040017  0.038506 -0.000930)
 25:    250.34   0.001089    5.50  0.001358  ( 0.002064  0.030770 -0.020169)
 26:    272.95   0.003090   15.62  0.003533  ( 0.056260 -0.015588  0.011172)
 27:    293.02   0.001437    7.26  0.001530  (-0.003568 -0.038739  0.004094)
 28:    295.20   0.001245    6.29  0.001316  ( 0.034294  0.002924  0.011469)
 29:    315.39   0.001044    5.28  0.001033  (-0.006650  0.031443  0.000027)
 30:    335.13   0.000853    4.31  0.000794  (-0.027660  0.005383 -0.000614)
 31:    369.97   0.002677   13.53  0.002258  (-0.040396  0.024637 -0.004339)
 32:    421.98   0.001765    8.92  0.001305  (-0.004720 -0.033873  0.011640)
 33:    449.87   0.001597    8.07  0.001108  (-0.017526  0.028265  0.001240)
 34:    469.14   0.001276    6.45  0.000849  (-0.009323  0.026118  0.008913)
 35:    490.05   0.000499    2.52  0.000318  (-0.012093  0.001171  0.013052)
 36:    495.87   0.002372   11.99  0.001493  ( 0.005841 -0.038148  0.001912)
 37:    516.97   0.002196   11.10  0.001326  ( 0.002750 -0.036168 -0.003191)
 38:    547.91   0.008968   45.32  0.005108  (-0.021738 -0.062547  0.026891)
 39:    555.79   0.001880    9.50  0.001055  ( 0.001584 -0.026165  0.019190)
 40:    574.56   0.005526   27.93  0.003001  (-0.049167 -0.015130 -0.018846)
 41:    588.46   0.004034   20.38  0.002139  (-0.005289 -0.022068  0.040300)
 42:    621.51   0.002688   13.59  0.001350  (-0.030700  0.014560 -0.013978)
 43:    623.85   0.015677   79.22  0.007842  ( 0.046679  0.052676  0.053743)
 44:    634.85   0.008823   44.59  0.004337  ( 0.024129  0.061121  0.004338)
 45:    646.56   0.005179   26.17  0.002499  ( 0.009263  0.048661  0.006760)
 46:    671.89   0.006955   35.15  0.003230  ( 0.030424 -0.047882  0.003469)
 47:    702.92   0.040352  203.92  0.017914  ( 0.006389 -0.130904 -0.027164)
 48:    713.41   0.012188   61.59  0.005331  ( 0.070197 -0.019947 -0.002428)
 49:    717.87   0.011777   59.52  0.005120  (-0.017503 -0.069222 -0.004639)
 50:    750.20   0.008452   42.71  0.003516  ( 0.015862  0.038072  0.042600)
 51:    765.45   0.016599   83.89  0.006767  (-0.018399  0.070745 -0.037735)
 52:    772.71   0.010501   53.07  0.004241  ( 0.011634 -0.058028  0.027169)
 53:    790.92   0.002016   10.19  0.000795  (-0.022661 -0.016593  0.002576)
 54:    795.53   0.000444    2.25  0.000174  (-0.009812 -0.005910 -0.006563)
 55:    821.84   0.002895   14.63  0.001099  (-0.003182  0.032126  0.007558)
 56:    830.13   0.001055    5.33  0.000397  ( 0.015417 -0.008242  0.009543)
 57:    835.41   0.005151   26.03  0.001924  ( 0.033988  0.026288  0.008832)
 58:    869.07   0.004697   23.74  0.001687  ( 0.011080  0.037203  0.013410)
 59:    878.99   0.005649   28.55  0.002006  ( 0.026668  0.024381  0.026458)
 60:    909.98   0.001922    9.71  0.000659  ( 0.011152 -0.014480 -0.018031)
 61:    937.38   0.006966   35.20  0.002319  ( 0.009553  0.044721 -0.015090)
 62:    956.12   0.002353   11.89  0.000768  ( 0.007990 -0.026433  0.002339)
 63:    964.46   0.000056    0.28  0.000018  ( 0.002627  0.001133 -0.003158)
 64:    987.63   0.000934    4.72  0.000295  ( 0.004867 -0.016093 -0.003538)
 65:    996.13   0.011474   57.99  0.003595  ( 0.018721 -0.055404 -0.013213)
 66:   1003.25   0.018380   92.89  0.005717  ( 0.004215  0.075459 -0.002324)
 67:   1013.18   0.000642    3.24  0.000198  (-0.005141  0.012692  0.003195)
 68:   1047.07   0.007761   39.22  0.002313  ( 0.038768 -0.019359 -0.020867)
 69:   1052.81   0.005252   26.54  0.001557  ( 0.023596 -0.031510  0.002666)
 70:   1072.41   0.011342   57.32  0.003300  ( 0.031519 -0.018722 -0.044232)
 71:   1084.18   0.001382    6.98  0.000398  (-0.005712  0.011241 -0.015453)
 72:   1090.75   0.022423  113.32  0.006415  ( 0.010777  0.059977  0.051978)
 73:   1098.59   0.006179   31.22  0.001755  ( 0.028426 -0.029914 -0.007226)
 74:   1147.90   0.009693   48.98  0.002635  (-0.007725  0.005481  0.050451)
 75:   1162.25   0.019661   99.36  0.005279  ( 0.010126 -0.071842 -0.003893)
 76:   1171.44   0.000195    0.98  0.000052  ( 0.001232  0.001350 -0.006967)
 77:   1172.23   0.000262    1.33  0.000070  ( 0.001740 -0.005972  0.005584)
 78:   1174.28   0.001098    5.55  0.000292  (-0.004407  0.008666  0.014044)
 79:   1176.32   0.004480   22.64  0.001188  ( 0.002815  0.029232  0.018055)
 80:   1198.92   0.011928   60.28  0.003105  (-0.053868  0.014246  0.000108)
 81:   1206.82   0.004975   25.14  0.001286  ( 0.023985 -0.025619 -0.007398)
 82:   1207.31   0.002072   10.47  0.000536  ( 0.000802 -0.008249 -0.021610)
 83:   1222.56   0.006018   30.41  0.001536  ( 0.010338 -0.035814 -0.012108)
 84:   1239.05   0.024400  123.31  0.006145  (-0.066011  0.038138 -0.018262)
 85:   1240.48   0.005724   28.93  0.001440  (-0.030882  0.021261 -0.005850)
 86:   1261.09   0.057283  289.49  0.014175  ( 0.104808 -0.052750  0.020194)
 87:   1270.75   0.043952  222.11  0.010793  (-0.081281  0.063607 -0.011873)
 88:   1297.35   0.021573  109.02  0.005189  ( 0.026907 -0.004906  0.066642)
 89:   1308.80   0.055774  281.86  0.013298  ( 0.050092  0.072526  0.074359)
 90:   1332.40   0.000994    5.02  0.000233  (-0.014849 -0.001577  0.003123)
 91:   1345.09   0.008808   44.51  0.002043  (-0.043451 -0.005705 -0.011086)
 92:   1355.96   0.098783  499.21  0.022734  ( 0.056116 -0.118289 -0.074784)
 93:   1369.36   0.041373  209.08  0.009429  (-0.070596  0.061840  0.024910)
 94:   1374.64   0.014023   70.87  0.003183  (-0.038100 -0.014517 -0.039001)
 95:   1389.69   0.002728   13.79  0.000613  ( 0.020976 -0.002505 -0.012900)
 96:   1418.95   0.005697   28.79  0.001253  ( 0.008860 -0.011184 -0.032392)
 97:   1465.06   0.004808   24.30  0.001024  (-0.001434 -0.027898 -0.015616)
 98:   1465.38   0.003062   15.48  0.000652  ( 0.005227 -0.020741  0.013952)
 99:   1469.09   0.012504   63.19  0.002656  (-0.050073  0.007964  0.009240)
100:   1472.02   0.005043   25.49  0.001069  ( 0.016898 -0.008087  0.026800)
101:   1474.83   0.003028   15.30  0.000641  (-0.007827  0.015008  0.018819)
102:   1482.26   0.020597  104.09  0.004336  ( 0.046560  0.028941 -0.036483)
103:   1483.44   0.003158   15.96  0.000664  (-0.017958 -0.014645 -0.011290)
104:   1499.28   0.011292   57.07  0.002350  ( 0.018284  0.032385  0.031102)
105:   1512.10   0.006899   34.86  0.001424  ( 0.022500  0.017985 -0.024374)
106:   1541.53   0.031578  159.58  0.006393  ( 0.024571  0.075834 -0.006165)
107:   1547.47   0.097366  492.05  0.019635  ( 0.052720 -0.043785  0.122222)
108:   1597.63   0.047674  240.92  0.009312  (-0.024765 -0.065523  0.066374)
109:   1651.82   0.008342   42.15  0.001576  ( 0.005653  0.019919  0.033870)
110:   1665.23   0.011419   57.71  0.002140  (-0.032825 -0.026447 -0.019054)
111:   1686.21   0.044623  225.51  0.008258  (-0.089718 -0.013541 -0.005051)
112:   1794.56   0.104669  528.95  0.018201  (-0.072443 -0.086925 -0.073466)
113:   2210.96   0.020109  101.62  0.002838  (-0.032648 -0.029831  0.029708)
114:   3039.85   0.012091   61.10  0.001241  (-0.010803  0.013834  0.030547)
115:   3074.43   0.006286   31.76  0.000638  ( 0.016744 -0.018482 -0.004009)
116:   3111.88   0.000954    4.82  0.000096  (-0.005884  0.007809  0.000324)
117:   3112.49   0.007300   36.89  0.000732  ( 0.009192 -0.022077  0.012650)
118:   3129.50   0.000522    2.64  0.000052  ( 0.007197 -0.000184 -0.000464)
119:   3158.87   0.003723   18.82  0.000368  (-0.006615 -0.010856  0.014359)
120:   3166.19   0.003333   16.84  0.000328  ( 0.016900  0.005485  0.003575)
121:   3168.36   0.001024    5.17  0.000101  ( 0.001505  0.008545  0.005053)
122:   3185.43   0.001003    5.07  0.000098  ( 0.005734 -0.002559 -0.007669)
123:   3190.95   0.002013   10.17  0.000197  (-0.010349 -0.003728 -0.008711)
124:   3196.18   0.001740    8.79  0.000170  ( 0.010838 -0.000341 -0.007235)
125:   3203.22   0.001330    6.72  0.000130  (-0.009782  0.001346 -0.005662)
126:   3214.33   0.003310   16.73  0.000321  (-0.011893 -0.009357 -0.009612)
127:   3224.44   0.000400    2.02  0.000039  (-0.004677 -0.001462 -0.003835)
128:   3230.61   0.000373    1.89  0.000036  ( 0.003604 -0.001777 -0.004460)
129:   3231.10   0.000178    0.90  0.000017  ( 0.003316  0.001484  0.001997)
130:   3248.46   0.000033    0.17  0.000003  (-0.000849  0.000074 -0.001555)
131:   3452.13   0.043782  221.26  0.003958  ( 0.024136  0.030863 -0.049221)

--------------------------
THERMOCHEMISTRY AT 298.15K
--------------------------

Temperature         ... 298.15 K
Pressure            ... 1.00 atm
Total Mass          ... 354.36 AMU

Throughout the following assumptions are being made:
  (1) The electronic state is orbitally nondegenerate
  (2) There are no thermally accessible electronically excited states
  (3) Hindered rotations indicated by low frequency modes are not
      treated as such but are treated as vibrations and this may
      cause some error
  (4) All equations used are the standard statistical mechanics
      equations for an ideal gas
  (5) All vibrations are strictly harmonic

freq.      24.78  E(vib)   ...       0.56
freq.      48.83  E(vib)   ...       0.53
freq.      68.99  E(vib)   ...       0.50
freq.      83.91  E(vib)   ...       0.48
freq.      86.19  E(vib)   ...       0.48
freq.      89.13  E(vib)   ...       0.47
freq.      92.44  E(vib)   ...       0.47
freq.     108.71  E(vib)   ...       0.45
freq.     117.62  E(vib)   ...       0.44
freq.     120.83  E(vib)   ...       0.44
freq.     127.05  E(vib)   ...       0.43
freq.     135.99  E(vib)   ...       0.42
freq.     145.90  E(vib)   ...       0.41
freq.     162.20  E(vib)   ...       0.39
freq.     187.61  E(vib)   ...       0.36
freq.     206.85  E(vib)   ...       0.35
freq.     215.33  E(vib)   ...       0.34
freq.     239.42  E(vib)   ...       0.31
freq.     250.34  E(vib)   ...       0.30
freq.     272.95  E(vib)   ...       0.29
freq.     293.02  E(vib)   ...       0.27
freq.     295.20  E(vib)   ...       0.27
freq.     315.39  E(vib)   ...       0.25
freq.     335.13  E(vib)   ...       0.24
freq.     369.97  E(vib)   ...       0.21
freq.     421.98  E(vib)   ...       0.18
freq.     449.87  E(vib)   ...       0.17
freq.     469.14  E(vib)   ...       0.16
freq.     490.05  E(vib)   ...       0.15
freq.     495.87  E(vib)   ...       0.14
freq.     516.97  E(vib)   ...       0.13
freq.     547.91  E(vib)   ...       0.12
freq.     555.79  E(vib)   ...       0.12
freq.     574.56  E(vib)   ...       0.11
freq.     588.46  E(vib)   ...       0.10
freq.     621.51  E(vib)   ...       0.09
freq.     623.85  E(vib)   ...       0.09
freq.     634.85  E(vib)   ...       0.09
freq.     646.56  E(vib)   ...       0.09
freq.     671.89  E(vib)   ...       0.08
freq.     702.92  E(vib)   ...       0.07
freq.     713.41  E(vib)   ...       0.07
freq.     717.87  E(vib)   ...       0.07
freq.     750.20  E(vib)   ...       0.06
freq.     765.45  E(vib)   ...       0.06
freq.     772.71  E(vib)   ...       0.05
freq.     790.92  E(vib)   ...       0.05
freq.     795.53  E(vib)   ...       0.05
freq.     821.84  E(vib)   ...       0.05
freq.     830.13  E(vib)   ...       0.04
freq.     835.41  E(vib)   ...       0.04
freq.     869.07  E(vib)   ...       0.04
freq.     878.99  E(vib)   ...       0.04
freq.     909.98  E(vib)   ...       0.03
freq.     937.38  E(vib)   ...       0.03
freq.     956.12  E(vib)   ...       0.03
freq.     964.46  E(vib)   ...       0.03
freq.     987.63  E(vib)   ...       0.02
freq.     996.13  E(vib)   ...       0.02
freq.    1003.25  E(vib)   ...       0.02
freq.    1013.18  E(vib)   ...       0.02
freq.    1047.07  E(vib)   ...       0.02
freq.    1052.81  E(vib)   ...       0.02
freq.    1072.41  E(vib)   ...       0.02
freq.    1084.18  E(vib)   ...       0.02
freq.    1090.75  E(vib)   ...       0.02
freq.    1098.59  E(vib)   ...       0.02
freq.    1147.90  E(vib)   ...       0.01
freq.    1162.25  E(vib)   ...       0.01
freq.    1171.44  E(vib)   ...       0.01
freq.    1172.23  E(vib)   ...       0.01
freq.    1174.28  E(vib)   ...       0.01
freq.    1176.32  E(vib)   ...       0.01
freq.    1198.92  E(vib)   ...       0.01
freq.    1206.82  E(vib)   ...       0.01
freq.    1207.31  E(vib)   ...       0.01
freq.    1222.56  E(vib)   ...       0.01
freq.    1239.05  E(vib)   ...       0.01
freq.    1240.48  E(vib)   ...       0.01
freq.    1261.09  E(vib)   ...       0.01
freq.    1270.75  E(vib)   ...       0.01
freq.    1297.35  E(vib)   ...       0.01
freq.    1308.80  E(vib)   ...       0.01
freq.    1332.40  E(vib)   ...       0.01
freq.    1345.09  E(vib)   ...       0.01
freq.    1355.96  E(vib)   ...       0.01
freq.    1369.36  E(vib)   ...       0.01
freq.    1374.64  E(vib)   ...       0.01
freq.    1389.69  E(vib)   ...       0.00
freq.    1418.95  E(vib)   ...       0.00
freq.    1465.06  E(vib)   ...       0.00
freq.    1465.38  E(vib)   ...       0.00
freq.    1469.09  E(vib)   ...       0.00
freq.    1472.02  E(vib)   ...       0.00
freq.    1474.83  E(vib)   ...       0.00
freq.    1482.26  E(vib)   ...       0.00
freq.    1483.44  E(vib)   ...       0.00
freq.    1499.28  E(vib)   ...       0.00
freq.    1512.10  E(vib)   ...       0.00
freq.    1541.53  E(vib)   ...       0.00
freq.    1547.47  E(vib)   ...       0.00
freq.    1597.63  E(vib)   ...       0.00
freq.    1651.82  E(vib)   ...       0.00
freq.    1665.23  E(vib)   ...       0.00
freq.    1686.21  E(vib)   ...       0.00
freq.    1794.56  E(vib)   ...       0.00
freq.    2210.96  E(vib)   ...       0.00
freq.    3039.85  E(vib)   ...       0.00
freq.    3074.43  E(vib)   ...       0.00
freq.    3111.88  E(vib)   ...       0.00
freq.    3112.49  E(vib)   ...       0.00
freq.    3129.50  E(vib)   ...       0.00
freq.    3158.87  E(vib)   ...       0.00
freq.    3166.19  E(vib)   ...       0.00
freq.    3168.36  E(vib)   ...       0.00
freq.    3185.43  E(vib)   ...       0.00
freq.    3190.95  E(vib)   ...       0.00
freq.    3196.18  E(vib)   ...       0.00
freq.    3203.22  E(vib)   ...       0.00
freq.    3214.33  E(vib)   ...       0.00
freq.    3224.44  E(vib)   ...       0.00
freq.    3230.61  E(vib)   ...       0.00
freq.    3231.10  E(vib)   ...       0.00
freq.    3248.46  E(vib)   ...       0.00
freq.    3452.13  E(vib)   ...       0.00

------------
INNER ENERGY
------------

The inner energy is: U= E(el) + E(ZPE) + E(vib) + E(rot) + E(trans)
    E(el)   - is the total energy from the electronic structure calculation
              = E(kin-el) + E(nuc-el) + E(el-el) + E(nuc-nuc)
    E(ZPE)  - the the zero temperature vibrational energy from the frequency calculation
    E(vib)  - the the finite temperature correction to E(ZPE) due to population
              of excited vibrational states
    E(rot)  - is the rotational thermal energy
    E(trans)- is the translational thermal energy

Summary of contributions to the inner energy U:
Electronic energy                ...  -1219.41952698 Eh
Zero point energy                ...      0.34300631 Eh     215.24 kcal/mol
Thermal vibrational correction   ...      0.02023359 Eh      12.70 kcal/mol
Thermal rotational correction    ...      0.00141627 Eh       0.89 kcal/mol

Rotational constants in cm-1:     0.011465     0.006803     0.005629

                             ****ORCA TERMINATED NORMALLY****
TOTAL RUN TIME: 0 days 3 hours 1 minutes 36 seconds 439 msec
