                         Program Version 5.0.4 -  RELEASE  -
|  1> %pal nprocs 24 end
|  2> %maxcore 3500
|  3> ! PBE0 D3BJ def2-TZVP TightSCF OPTTS FREQ TightOpt
|  4> ! CPCM(dmso)
|  5> %scf
|  6> MaxIter 800
|  7> end
|  8>
|  9> %geom
| 10> MaxIter 800
| 11> MaxStep 0.15
| 12> end
| 13>
| 14> *xyz 0 1
| 15> C      -4.30406500     -1.18891500      0.01343200
| 16> C      -3.81598800     -2.19189600     -0.85782900
| 17> C      -2.46567900     -2.39597300     -0.92784100
| 18> N      -1.61238200     -1.70231200     -0.12992000
| 19> C      -2.04649600     -0.71566000      0.72174200
| 20> C      -3.43835400     -0.48411700      0.81679900
| 21> C      -0.20115300     -1.64252800     -0.41261500
| 22> C       0.61318400     -2.11558100      0.78162300
| 23> O       0.20340800     -2.23196300      1.90938000
| 24> O       1.82348800     -2.46883700      0.38117800
| 25> C       2.71282700     -2.96715900      1.37485800
| 26> H      -5.37920100     -1.00337200      0.07578400
| 27> H      -2.00102800     -3.11305500     -1.60662100
| 28> H      -1.38709200     -0.45090700      1.54511600
| 29> H      -3.79214100      0.25767800      1.53312300
| 30> H       0.03062700     -2.33910700     -1.22844200
| 31> H       3.68184200     -3.09406800      0.88057100
| 32> H       2.35184200     -3.93187600      1.75899800
| 33> C      -0.89440900      0.81796800     -0.33238700
| 34> C       0.05183600     -0.16381300     -0.96278000
| 35> C       1.50369900      0.23240700     -1.05851700
| 36> C       2.11383200      0.34282100     -2.30710600
| 37> C       3.45362600      0.71767300     -2.43372500
| 38> C       4.19710300      0.98656100     -1.28878600
| 39> C       3.61412300      0.88141400     -0.02369400
| 40> C       2.27555100      0.50311400      0.08795700
| 41> O       1.62484900      0.36214400      1.25957900
| 42> C       2.28322600      0.65241300      2.47108000
| 43> N      -1.94572900      1.26373400     -1.12031200
| 44> O      -2.27346500      0.65108400     -2.14236200
| 45> H      -0.31787700     -0.24107100     -1.99376700
| 46> H       1.52037800      0.13110300     -3.20086100
| 47> H       3.90861700      0.79923700     -3.42318100
| 48> H       5.24619000      1.28237200     -1.36933300
| 49> H       4.20613700      1.09168900      0.86750200
| 50> H       1.54699100      0.48961100      3.26688400
| 51> H       2.62725800      1.69867800      2.49756600
| 52> H       3.14626400     -0.01442800      2.62783100
| 53> O      -2.60888800      2.22843300     -0.70679700
| 54> H       2.79985100     -2.25796200      2.20861200
| 55> H      -4.48549600     -2.78143100     -1.48390700
| 56> C      -0.55622500      1.82353500      0.73055000
| 57> O      -0.92330600      1.77291900      1.88128900
| 58> O       0.18892200      2.81279200      0.24601300
| 59> C       0.53035600      3.85720400      1.14890700
| 60> H       1.04688800      3.45578400      2.03164100
| 61> H       1.19184300      4.53499400      0.59809600
| 62> H      -0.37333400      4.39187400      1.47597500
| 63> *
| 64>
| 65>                          ****END OF INPUT****
 Total Charge           Charge          ....    0
 Multiplicity           Mult            ....    1
 Number of Electrons    NEL             ....  204
Dispersion correction           -0.065932829
FINAL SINGLE POINT ENERGY     -1371.064702666789
Dispersion correction            ... done
Dispersion correction           -0.065379183
FINAL SINGLE POINT ENERGY     -1371.064714336776
Dispersion correction            ... done
Dispersion correction           -0.065043514
FINAL SINGLE POINT ENERGY     -1371.066756116411
Dispersion correction            ... done
FINAL SINGLE POINT ENERGY     -1371.067153248405
FINAL SINGLE POINT ENERGY     -1371.067531154913
FINAL SINGLE POINT ENERGY     -1371.064728747448
FINAL SINGLE POINT ENERGY     -1371.066752080796
FINAL SINGLE POINT ENERGY     -1371.064405499878
FINAL SINGLE POINT ENERGY     -1371.066045562841
FINAL SINGLE POINT ENERGY     -1371.067442931133
FINAL SINGLE POINT ENERGY     -1371.065877111610
FINAL SINGLE POINT ENERGY     -1371.065958687891
FINAL SINGLE POINT ENERGY     -1371.065982585089
FINAL SINGLE POINT ENERGY     -1371.065981846952
FINAL SINGLE POINT ENERGY     -1371.065970575868
FINAL SINGLE POINT ENERGY     -1371.065927316156
FINAL SINGLE POINT ENERGY     -1371.065984338650
Dispersion correction           -0.065495623
FINAL SINGLE POINT ENERGY     -1371.065981525009
Dispersion correction            ... done
Dispersion correction           -0.065489570
FINAL SINGLE POINT ENERGY     -1371.065981888702
Dispersion correction            ... done
                    ***********************HURRAY********************

CARTESIAN COORDINATES (ANGSTROEM)
---------------------------------
  C     -4.277711   -1.179385    0.114788
  C     -3.822445   -2.206246   -0.744015
  C     -2.485225   -2.410216   -0.856039
  N     -1.604347   -1.690426   -0.118992
  C     -1.997557   -0.647097    0.690598
  C     -3.393672   -0.433629    0.836848
  C     -0.205008   -1.651681   -0.437982
  C      0.629762   -2.170063    0.721788
  O      0.226525   -2.357951    1.840707
  O      1.841509   -2.482846    0.293626
  C      2.738569   -3.025968    1.267253
  H     -5.342346   -1.009965    0.227720
  H     -2.047542   -3.149755   -1.513814
  H     -1.343785   -0.428479    1.524069
  H     -3.725491    0.321210    1.536544
  H     -0.010728   -2.328350   -1.270195
  H      3.689233   -3.146225    0.755004
  H      2.368947   -3.989433    1.618778
  C     -0.934688    0.787037   -0.343129
  C      0.055748   -0.168886   -0.962985
  C      1.498245    0.254994   -1.011500
  C      2.119181    0.410299   -2.241888
  C      3.447709    0.805985   -2.342128
  C      4.169827    1.050866   -1.186936
  C      3.575020    0.902452    0.060489
  C      2.247943    0.505338    0.144670
  O      1.585599    0.329327    1.307197
  C      2.256154    0.602463    2.523544
  N     -1.936642    1.259703   -1.190179
  O     -2.230089    0.645720   -2.220640
  H     -0.272106   -0.239559   -2.000267
  H      1.545154    0.217196   -3.142271
  H      3.908658    0.921509   -3.315641
  H      5.207184    1.360564   -1.244798
  H      4.148179    1.095402    0.957401
  H      1.534126    0.409361    3.313662
  H      2.579768    1.645531    2.566532
  H      3.122781   -0.051503    2.650119
  O     -2.595127    2.240777   -0.811261
  H      2.842505   -2.344457    2.110375
  H     -4.509252   -2.817352   -1.311650
  C     -0.590260    1.840292    0.677685
  O     -0.973782    1.843255    1.820577
  O      0.174865    2.789514    0.153592
  C      0.541813    3.858311    1.030332
  H      1.061947    3.468535    1.904981
  H      1.199521    4.501166    0.451312
  H     -0.346217    4.405870    1.347418

 Multiplicity           Mult            ....    1
 Number of Electrons    NEL             ....  204
 Basis Dimension        Dim             ....  988

ORBITAL ENERGIES
----------------

  NO   OCC          E(Eh)            E(eV)
   0   2.0000     -19.267660      -524.2997
   1   2.0000     -19.262219      -524.1516
   2   2.0000     -19.250368      -523.8291
   3   2.0000     -19.216670      -522.9122
   4   2.0000     -19.215461      -522.8793
   5   2.0000     -19.207360      -522.6588
   6   2.0000     -19.202060      -522.5146
   7   2.0000     -14.597804      -397.2264
   8   2.0000     -14.468063      -393.6960
   9   2.0000     -10.366729      -282.0930
  10   2.0000     -10.365236      -282.0524
  11   2.0000     -10.301370      -280.3145
  12   2.0000     -10.298902      -280.2474
  13   2.0000     -10.291484      -280.0455
  14   2.0000     -10.286906      -279.9209
  15   2.0000     -10.281678      -279.7787
  16   2.0000     -10.272505      -279.5291
  17   2.0000     -10.269076      -279.4358
  18   2.0000     -10.268807      -279.4285
  19   2.0000     -10.267959      -279.4054
  20   2.0000     -10.253471      -279.0111
  21   2.0000     -10.242292      -278.7069
  22   2.0000     -10.241038      -278.6728
  23   2.0000     -10.234252      -278.4882
  24   2.0000     -10.230856      -278.3957
  25   2.0000     -10.230597      -278.3887
  26   2.0000     -10.226677      -278.2820
  27   2.0000     -10.221929      -278.1528
  28   2.0000      -1.243264       -33.8309
  29   2.0000      -1.159106       -31.5409
  30   2.0000      -1.152354       -31.3572
  31   2.0000      -1.113550       -30.3012
  32   2.0000      -1.069073       -29.0910
  33   2.0000      -1.060687       -28.8628
  34   2.0000      -1.058771       -28.8106
  35   2.0000      -1.048481       -28.5306
  36   2.0000      -0.902959       -24.5708
  37   2.0000      -0.879724       -23.9385
  38   2.0000      -0.867189       -23.5974
  39   2.0000      -0.819616       -22.3029
  40   2.0000      -0.816273       -22.2119
  41   2.0000      -0.790283       -21.5047
  42   2.0000      -0.781114       -21.2552
  43   2.0000      -0.759347       -20.6629
  44   2.0000      -0.751686       -20.4544
  45   2.0000      -0.725304       -19.7365
  46   2.0000      -0.707380       -19.2488
  47   2.0000      -0.686503       -18.6807
  48   2.0000      -0.663686       -18.0598
  49   2.0000      -0.642356       -17.4794
  50   2.0000      -0.632531       -17.2120
  51   2.0000      -0.615218       -16.7409
  52   2.0000      -0.603641       -16.4259
  53   2.0000      -0.583941       -15.8898
  54   2.0000      -0.570530       -15.5249
  55   2.0000      -0.566880       -15.4256
  56   2.0000      -0.557609       -15.1733
  57   2.0000      -0.555636       -15.1196
  58   2.0000      -0.546516       -14.8715
  59   2.0000      -0.535488       -14.5714
  60   2.0000      -0.530455       -14.4344
  61   2.0000      -0.522490       -14.2177
  62   2.0000      -0.515675       -14.0322
  63   2.0000      -0.512678       -13.9507
  64   2.0000      -0.504765       -13.7354
  65   2.0000      -0.500444       -13.6178
  66   2.0000      -0.500017       -13.6061
  67   2.0000      -0.493470       -13.4280
  68   2.0000      -0.482821       -13.1382
  69   2.0000      -0.479780       -13.0555
  70   2.0000      -0.473048       -12.8723
  71   2.0000      -0.467890       -12.7319
  72   2.0000      -0.462980       -12.5983
  73   2.0000      -0.453102       -12.3295
  74   2.0000      -0.444743       -12.1021
  75   2.0000      -0.440910       -11.9978
  76   2.0000      -0.433471       -11.7953
  77   2.0000      -0.423604       -11.5269
  78   2.0000      -0.413282       -11.2460
  79   2.0000      -0.406038       -11.0489
  80   2.0000      -0.402706       -10.9582
  81   2.0000      -0.395964       -10.7747
  82   2.0000      -0.393232       -10.7004
  83   2.0000      -0.386191       -10.5088
  84   2.0000      -0.384365       -10.4591
  85   2.0000      -0.380133       -10.3440
  86   2.0000      -0.377112       -10.2617
  87   2.0000      -0.371181       -10.1004
  88   2.0000      -0.348801        -9.4914
  89   2.0000      -0.345813        -9.4100
  90   2.0000      -0.334560        -9.1039
  91   2.0000      -0.331343        -9.0163
  92   2.0000      -0.329810        -8.9746
  93   2.0000      -0.325089        -8.8461
  94   2.0000      -0.321611        -8.7515
  95   2.0000      -0.314171        -8.5490
  96   2.0000      -0.309694        -8.4272
  97   2.0000      -0.302886        -8.2419
  98   2.0000      -0.292648        -7.9633
  99   2.0000      -0.272292        -7.4094
 100   2.0000      -0.242696        -6.6041
 101   2.0000      -0.217867        -5.9285
 102   0.0000      -0.069047        -1.8789
 103   0.0000      -0.040965        -1.1147
 104   0.0000      -0.017104        -0.4654
 105   0.0000      -0.005154        -0.1403
 106   0.0000      -0.000547        -0.0149

MULLIKEN ATOMIC CHARGES
-----------------------
   0 C :   -0.123482
   1 C :   -0.167645
   2 C :   -0.095333
   3 N :    0.138775
   4 C :    0.009943
   5 C :   -0.229186
   6 C :   -0.067559
   7 C :    0.313461
   8 O :   -0.379522
   9 O :   -0.215315
  10 C :   -0.258937
  11 H :    0.167140
  12 H :    0.187935
  13 H :    0.168591
  14 H :    0.165602
  15 H :    0.161561
  16 H :    0.164508
  17 H :    0.160547
  18 C :   -0.244619
  19 C :    0.212334
  20 C :    0.047210
  21 C :   -0.233526
  22 C :   -0.200754
  23 C :   -0.144590
  24 C :   -0.324214
  25 C :    0.268060
  26 O :   -0.267685
  27 C :   -0.301988
  28 N :    0.510546
  29 O :   -0.445432
  30 H :    0.121755
  31 H :    0.145999
  32 H :    0.146309
  33 H :    0.151235
  34 H :    0.165272
  35 H :    0.162988
  36 H :    0.162062
  37 H :    0.162408
  38 O :   -0.439592
  39 H :    0.151201
  40 H :    0.173408
  41 C :    0.321124
  42 O :   -0.394380
  43 O :   -0.206311
  44 C :   -0.269314
  45 H :    0.151387
  46 H :    0.161711
  47 H :    0.156315
Sum of atomic charges:    0.0000000

LOEWDIN ATOMIC CHARGES
----------------------
   0 C :   -0.107512
   1 C :   -0.164132
   2 C :   -0.126258
   3 N :    0.299830
   4 C :   -0.126535
   5 C :   -0.139019
   6 C :   -0.152930
   7 C :   -0.486523
   8 O :    0.095179
   9 O :    0.282020
  10 C :   -0.298393
  11 H :    0.163226
  12 H :    0.167732
  13 H :    0.170560
  14 H :    0.161934
  15 H :    0.188290
  16 H :    0.124181
  17 H :    0.121546
  18 C :   -0.190899
  19 C :   -0.141189
  20 C :   -0.108889
  21 C :   -0.108850
  22 C :   -0.164753
  23 C :   -0.143977
  24 C :   -0.137719
  25 C :   -0.242152
  26 O :    0.279328
  27 C :   -0.327524
  28 N :   -0.048308
  29 O :   -0.114983
  30 H :    0.191191
  31 H :    0.160027
  32 H :    0.152338
  33 H :    0.154756
  34 H :    0.161608
  35 H :    0.123601
  36 H :    0.119224
  37 H :    0.118255
  38 O :   -0.116315
  39 H :    0.118907
  40 H :    0.161349
  41 C :   -0.496365
  42 O :    0.094600
  43 O :    0.277885
  44 C :   -0.304899
  45 H :    0.117921
  46 H :    0.122625
  47 H :    0.120011

  Mayer bond orders larger than 0.100000
B(  0-C ,  1-C ) :   1.2317 B(  0-C ,  5-C ) :   1.6377 B(  0-C , 11-H ) :   0.9542
B(  1-C ,  2-C ) :   1.5788 B(  1-C , 40-H ) :   0.9555 B(  2-C ,  3-N ) :   1.2183
B(  2-C , 12-H ) :   0.9389 B(  3-N ,  4-C ) :   1.1283 B(  3-N ,  6-C ) :   0.9116
B(  4-C ,  5-C ) :   1.1733 B(  4-C , 13-H ) :   0.9170 B(  4-C , 18-C ) :   0.5217
B(  5-C , 14-H ) :   0.9582 B(  6-C ,  7-C ) :   0.9993 B(  6-C , 15-H ) :   0.9132
B(  6-C , 19-C ) :   0.9337 B(  6-C , 20-C ) :   0.1062 B(  7-C ,  8-O ) :   1.9765
B(  7-C ,  9-O ) :   1.2375 B(  9-O , 10-C ) :   0.8816 B( 10-C , 16-H ) :   0.9639
B( 10-C , 17-H ) :   0.9634 B( 10-C , 39-H ) :   0.9701 B( 18-C , 19-C ) :   0.9716
B( 18-C , 28-N ) :   1.1658 B( 18-C , 29-O ) :   0.1225 B( 18-C , 41-C ) :   0.9678
B( 19-C , 20-C ) :   0.7705 B( 19-C , 30-H ) :   0.8895 B( 20-C , 21-C ) :   1.3777
B( 20-C , 25-C ) :   1.2419 B( 21-C , 22-C ) :   1.3883 B( 21-C , 31-H ) :   0.9822
B( 22-C , 23-C ) :   1.3995 B( 22-C , 32-H ) :   0.9841 B( 23-C , 24-C ) :   1.3828
B( 23-C , 33-H ) :   0.9708 B( 24-C , 25-C ) :   1.4008 B( 24-C , 34-H ) :   0.9622
B( 25-C , 26-O ) :   1.0375 B( 26-O , 27-C ) :   0.9209 B( 27-C , 35-H ) :   0.9658
B( 27-C , 36-H ) :   0.9595 B( 27-C , 37-H ) :   0.9579 B( 28-N , 29-O ) :   1.4389
B( 28-N , 38-O ) :   1.4669 B( 29-O , 38-O ) :   0.1105 B( 41-C , 42-O ) :   1.9365
B( 41-C , 43-O ) :   1.2634 B( 43-O , 44-C ) :   0.8862 B( 44-C , 45-H ) :   0.9685
B( 44-C , 46-H ) :   0.9648 B( 44-C , 47-H ) :   0.9649

Dispersion correction           -0.065484975
FINAL SINGLE POINT ENERGY     -1371.065983258705

DIPOLE MOMENT
-------------
                                X             Y             Z
Electronic contribution:    -11.52402      -1.00488      -5.99202
Nuclear contribution   :     14.52131      -1.35546       6.63867
                        -----------------------------------------
Total Dipole Moment    :      2.99729      -2.36034       0.64665
                        -----------------------------------------
Magnitude (a.u.)       :      3.86952
Magnitude (Debye)      :      9.83553

Dispersion correction in the Hessian             ... done   (      0.7 sec)

VIBRATIONAL FREQUENCIES
-----------------------

Scaling factor for frequencies =  1.000000000  (already applied!)

   0:         0.00 cm**-1
   1:         0.00 cm**-1
   2:         0.00 cm**-1
   3:         0.00 cm**-1
   4:         0.00 cm**-1
   5:         0.00 cm**-1
   6:      -348.97 cm**-1 ***imaginary mode***
   7:        16.67 cm**-1
   8:        46.54 cm**-1
   9:        71.34 cm**-1
  10:        77.51 cm**-1
  11:        82.18 cm**-1
  12:        92.74 cm**-1
  13:        96.94 cm**-1
  14:        99.49 cm**-1
  15:       106.12 cm**-1
  16:       112.33 cm**-1
  17:       115.56 cm**-1
  18:       121.95 cm**-1
  19:       132.97 cm**-1
  20:       145.69 cm**-1
  21:       147.36 cm**-1
  22:       168.48 cm**-1
  23:       189.43 cm**-1
  24:       201.00 cm**-1
  25:       212.56 cm**-1
  26:       231.93 cm**-1
  27:       244.50 cm**-1
  28:       248.43 cm**-1
  29:       265.92 cm**-1
  30:       286.10 cm**-1
  31:       287.88 cm**-1
  32:       312.19 cm**-1
  33:       320.22 cm**-1
  34:       330.68 cm**-1
  35:       364.26 cm**-1
  36:       393.23 cm**-1
  37:       441.20 cm**-1
  38:       475.60 cm**-1
  39:       478.88 cm**-1
  40:       484.30 cm**-1
  41:       533.66 cm**-1
  42:       551.98 cm**-1
  43:       574.42 cm**-1
  44:       588.46 cm**-1
  45:       615.70 cm**-1
  46:       634.77 cm**-1
  47:       641.78 cm**-1
  48:       661.64 cm**-1
  49:       683.82 cm**-1
  50:       702.65 cm**-1
  51:       727.07 cm**-1
  52:       755.13 cm**-1
  53:       763.32 cm**-1
  54:       772.99 cm**-1
  55:       794.80 cm**-1
  56:       797.51 cm**-1
  57:       807.90 cm**-1
  58:       833.56 cm**-1
  59:       842.61 cm**-1
  60:       849.59 cm**-1
  61:       872.90 cm**-1
  62:       877.48 cm**-1
  63:       913.53 cm**-1
  64:       926.03 cm**-1
  65:       955.91 cm**-1
  66:       966.86 cm**-1
  67:       974.45 cm**-1
  68:       987.43 cm**-1
  69:       991.04 cm**-1
  70:      1017.38 cm**-1
  71:      1025.98 cm**-1
  72:      1051.33 cm**-1
  73:      1055.76 cm**-1
  74:      1069.91 cm**-1
  75:      1081.07 cm**-1
  76:      1084.53 cm**-1
  77:      1113.86 cm**-1
  78:      1142.18 cm**-1
  79:      1150.24 cm**-1
  80:      1168.72 cm**-1
  81:      1170.32 cm**-1
  82:      1171.54 cm**-1
  83:      1173.11 cm**-1
  84:      1173.65 cm**-1
  85:      1176.57 cm**-1
  86:      1199.23 cm**-1
  87:      1205.06 cm**-1
  88:      1205.87 cm**-1
  89:      1214.56 cm**-1
  90:      1227.30 cm**-1
  91:      1242.32 cm**-1
  92:      1247.92 cm**-1
  93:      1257.39 cm**-1
  94:      1278.03 cm**-1
  95:      1307.68 cm**-1
  96:      1324.27 cm**-1
  97:      1336.71 cm**-1
  98:      1351.29 cm**-1
  99:      1371.42 cm**-1
 100:      1375.24 cm**-1
 101:      1387.96 cm**-1
 102:      1395.32 cm**-1
 103:      1432.56 cm**-1
 104:      1463.72 cm**-1
 105:      1464.65 cm**-1
 106:      1465.40 cm**-1
 107:      1466.94 cm**-1
 108:      1469.43 cm**-1
 109:      1470.86 cm**-1
 110:      1475.20 cm**-1
 111:      1477.07 cm**-1
 112:      1490.72 cm**-1
 113:      1491.91 cm**-1
 114:      1498.98 cm**-1
 115:      1506.37 cm**-1
 116:      1511.21 cm**-1
 117:      1542.18 cm**-1
 118:      1601.60 cm**-1
 119:      1652.20 cm**-1
 120:      1665.07 cm**-1
 121:      1683.36 cm**-1
 122:      1780.46 cm**-1
 123:      1795.65 cm**-1
 124:      3044.86 cm**-1
 125:      3072.89 cm**-1
 126:      3078.03 cm**-1
 127:      3114.69 cm**-1
 128:      3117.33 cm**-1
 129:      3136.24 cm**-1
 130:      3156.06 cm**-1
 131:      3163.49 cm**-1
 132:      3172.99 cm**-1
 133:      3185.99 cm**-1
 134:      3189.94 cm**-1
 135:      3193.93 cm**-1
 136:      3196.62 cm**-1
 137:      3207.15 cm**-1
 138:      3212.27 cm**-1
 139:      3214.15 cm**-1
 140:      3230.24 cm**-1
 141:      3230.36 cm**-1
 142:      3237.45 cm**-1
 143:      3249.00 cm**-1

IR SPECTRUM
-----------

 Mode   freq       eps      Int      T**2         TX        TY        TZ
       cm**-1   L/(mol*cm) km/mol    a.u.
----------------------------------------------------------------------------
  7:     16.67   0.000147    0.74  0.002746  ( 0.020229  0.018050  0.044843)
  8:     46.54   0.000099    0.50  0.000663  ( 0.011377  0.012550 -0.019389)
  9:     71.34   0.001424    7.20  0.006231  (-0.066885  0.041652  0.004766)
 10:     77.51   0.000753    3.80  0.003030  ( 0.015446 -0.050319  0.016101)
 11:     82.18   0.001368    6.92  0.005196  (-0.024916 -0.011598  0.066642)
 12:     92.74   0.000797    4.03  0.002681  ( 0.035345 -0.001725  0.037794)
 13:     96.94   0.000087    0.44  0.000280  (-0.000082  0.016197  0.004259)
 14:     99.49   0.001107    5.59  0.003471  (-0.052610 -0.026496  0.001192)
 15:    106.12   0.000652    3.29  0.001916  ( 0.005707  0.037185 -0.022377)
 16:    112.33   0.000476    2.40  0.001321  (-0.020389 -0.028220  0.010455)
 17:    115.56   0.001091    5.51  0.002946  (-0.000816  0.054247 -0.001465)
 18:    121.95   0.000141    0.71  0.000360  (-0.017478 -0.007073  0.002202)
 19:    132.97   0.000426    2.15  0.001001  (-0.006644 -0.021162 -0.022554)
 20:    145.69   0.000062    0.32  0.000134  (-0.008032 -0.006326  0.005416)
 21:    147.36   0.000055    0.28  0.000117  ( 0.005936  0.008513  0.003020)
 22:    168.48   0.000072    0.36  0.000133  ( 0.008498 -0.005042 -0.005915)
 23:    189.43   0.002393   12.10  0.003943  (-0.001050 -0.062757  0.001821)
 24:    201.00   0.000607    3.07  0.000942  (-0.016655 -0.021665 -0.013985)
 25:    212.56   0.002979   15.06  0.004374  (-0.009017 -0.063541  0.015971)
 26:    231.93   0.002235   11.30  0.003008  ( 0.041114  0.023531 -0.027631)
 27:    244.50   0.000151    0.76  0.000192  ( 0.009076 -0.003675 -0.009829)
 28:    248.43   0.001262    6.38  0.001585  (-0.013090 -0.037456  0.003285)
 29:    265.92   0.002981   15.07  0.003498  ( 0.026771 -0.050697 -0.014545)
 30:    286.10   0.002394   12.10  0.002611  ( 0.029435 -0.037793  0.017794)
 31:    287.88   0.002243   11.33  0.002431  ( 0.047095  0.004990 -0.013719)
 32:    312.19   0.000889    4.49  0.000889  ( 0.024722 -0.014106  0.008875)
 33:    320.22   0.001177    5.95  0.001147  (-0.029103 -0.014106 -0.010067)
 34:    330.68   0.000734    3.71  0.000693  (-0.001771 -0.024393  0.009721)
 35:    364.26   0.006187   31.27  0.005301  ( 0.040794 -0.055644  0.023239)
 36:    393.23   0.013092   66.16  0.010390  (-0.039730 -0.092694  0.014811)
 37:    441.20   0.000492    2.49  0.000348  ( 0.017523  0.001729  0.006148)
 38:    475.60   0.003338   16.87  0.002190  (-0.010383 -0.044797  0.008702)
 39:    478.88   0.000599    3.03  0.000390  (-0.010057  0.010158 -0.013630)
 40:    484.30   0.002561   12.94  0.001650  ( 0.000505  0.039385 -0.009937)
 41:    533.66   0.014170   71.61  0.008286  ( 0.012300  0.088393 -0.017921)
 42:    551.98   0.008027   40.56  0.004538  (-0.009618  0.065734 -0.011153)
 43:    574.42   0.010697   54.06  0.005811  ( 0.051510  0.043096 -0.036066)
 44:    588.46   0.009485   47.93  0.005030  ( 0.006760  0.070563  0.002213)
 45:    615.70   0.007519   38.00  0.003811  ( 0.060775 -0.010079  0.003947)
 46:    634.77   0.012309   62.21  0.006051  ( 0.012117  0.069008 -0.033800)
 47:    641.78   0.004651   23.51  0.002262  (-0.019466 -0.036325  0.023734)
 48:    661.64   0.002666   13.47  0.001257  ( 0.020858  0.028660 -0.000917)
 49:    683.82   0.006964   35.19  0.003178  (-0.046400  0.007429 -0.031142)
 50:    702.65   0.029580  149.48  0.013137  (-0.013920  0.079905 -0.080985)
 51:    727.07   0.020852  105.38  0.008950  (-0.018416 -0.087215  0.031692)
 52:    755.13   0.006695   33.84  0.002767  (-0.028141 -0.000909  0.044431)
 53:    763.32   0.005924   29.94  0.002422  ( 0.004406 -0.047479  0.012178)
 54:    772.99   0.019523   98.66  0.007882  ( 0.023871 -0.085335  0.005442)
 55:    794.80   0.002480   12.53  0.000974  (-0.004952 -0.001401 -0.030776)
 56:    797.51   0.001264    6.39  0.000494  (-0.020722 -0.007700 -0.002405)
 57:    807.90   0.002686   13.57  0.001037  ( 0.001505  0.027479  0.016734)
 58:    833.56   0.003515   17.76  0.001316  ( 0.008691  0.032607  0.013309)
 59:    842.61   0.003624   18.31  0.001342  (-0.009587 -0.034990  0.005087)
 60:    849.59   0.005889   29.76  0.002163  (-0.012411 -0.004778  0.044566)
 61:    872.90   0.005574   28.17  0.001993  (-0.019690 -0.033067  0.022619)
 62:    877.48   0.003713   18.76  0.001320  (-0.026098 -0.009736  0.023334)
 63:    913.53   0.005588   28.24  0.001909  (-0.005181  0.041225 -0.013512)
 64:    926.03   0.006348   32.08  0.002139  ( 0.000345 -0.044064  0.014057)
 65:    955.91   0.001295    6.54  0.000423  ( 0.010798 -0.015652  0.007822)
 66:    966.86   0.008323   42.06  0.002686  ( 0.007247 -0.039901  0.032276)
 67:    974.45   0.027902  141.00  0.008935  (-0.000767  0.079589 -0.050994)
 68:    987.43   0.000732    3.70  0.000231  ( 0.012440  0.007730  0.004101)
 69:    991.04   0.000895    4.52  0.000282  ( 0.013787  0.006799  0.006744)
 70:   1017.38   0.000546    2.76  0.000168  (-0.004481 -0.011982 -0.001995)
 71:   1025.98   0.009190   46.44  0.002795  (-0.009061  0.050102  0.014247)
 72:   1051.33   0.007185   36.31  0.002133  ( 0.034541 -0.019543  0.023618)
 73:   1055.76   0.000148    0.75  0.000044  ( 0.002473  0.005582 -0.002555)
 74:   1069.91   0.012104   61.17  0.003530  (-0.036744 -0.010655 -0.045462)
 75:   1081.07   0.001867    9.44  0.000539  ( 0.012712  0.016469 -0.010305)
 76:   1084.53   0.010862   54.89  0.003126  ( 0.012625  0.008913 -0.053728)
 77:   1113.86   0.014707   74.32  0.004120  ( 0.004173 -0.064045 -0.001094)
 78:   1142.18   0.001839    9.30  0.000503  ( 0.017544 -0.013567 -0.003270)
 79:   1150.24   0.034787  175.80  0.009438  ( 0.050850  0.023049  0.079505)
 80:   1168.72   0.003050   15.41  0.000814  ( 0.024914  0.009263  0.010388)
 81:   1170.32   0.000391    1.98  0.000104  ( 0.009122 -0.003532  0.002935)
 82:   1171.54   0.005476   27.67  0.001459  ( 0.005535 -0.037306 -0.006023)
 83:   1173.11   0.000827    4.18  0.000220  (-0.008384 -0.010954 -0.005457)
 84:   1173.65   0.000397    2.01  0.000106  ( 0.004770 -0.002470  0.008762)
 85:   1176.57   0.018956   95.80  0.005028  ( 0.054160  0.035407  0.028997)
 86:   1199.23   0.021143  106.85  0.005502  ( 0.047956 -0.053237  0.019182)
 87:   1205.06   0.002499   12.63  0.000647  (-0.008016  0.002424 -0.024018)
 88:   1205.87   0.002462   12.44  0.000637  (-0.021817  0.010321 -0.007395)
 89:   1214.56   0.002197   11.10  0.000564  (-0.015710 -0.004088 -0.017346)
 90:   1227.30   0.009104   46.01  0.002315  ( 0.010143  0.045904 -0.010240)
 91:   1242.32   0.035555  179.68  0.008931  ( 0.090125 -0.027633  0.006706)
 92:   1247.92   0.084975  429.43  0.021249  (-0.021427 -0.143809  0.010455)
 93:   1257.39   0.094579  477.96  0.023473  (-0.138330  0.063377 -0.017921)
 94:   1278.03   0.020347  102.83  0.004968  ( 0.047648 -0.014143  0.049979)
 95:   1307.68   0.054219  274.00  0.012939  (-0.039716 -0.013359  0.105749)
 96:   1324.27   0.015928   80.50  0.003754  (-0.046931 -0.036505  0.014777)
 97:   1336.71   0.038400  194.06  0.008965  ( 0.080440  0.049864  0.002764)
 98:   1351.29   0.101843  514.67  0.023519  ( 0.017994 -0.132186  0.075647)
 99:   1371.42   0.007281   36.80  0.001657  (-0.030423 -0.017148  0.020911)
100:   1375.24   0.067702  342.14  0.015363  (-0.049635  0.104087 -0.045443)
101:   1387.96   0.007958   40.22  0.001789  (-0.011382 -0.016499  0.037248)
102:   1395.32   0.014073   71.12  0.003147  (-0.040556 -0.014586 -0.035915)
103:   1432.56   0.013262   67.02  0.002889  ( 0.024057 -0.023172  0.042109)
104:   1463.72   0.009772   49.38  0.002083  (-0.030258 -0.013566 -0.031365)
105:   1464.65   0.000749    3.78  0.000160  (-0.000479 -0.012580  0.001004)
106:   1465.40   0.001889    9.55  0.000402  (-0.015761  0.012401  0.000454)
107:   1466.94   0.011011   55.64  0.002342  (-0.018734 -0.043776  0.008662)
108:   1469.43   0.013888   70.18  0.002949  (-0.048824  0.010997 -0.021087)
109:   1470.86   0.004534   22.91  0.000962  (-0.020686  0.021770  0.007753)
110:   1475.20   0.006087   30.76  0.001288  (-0.012213 -0.014352  0.030537)
111:   1477.07   0.001566    7.92  0.000331  (-0.003131  0.001949  0.017815)
112:   1490.72   0.001948    9.85  0.000408  ( 0.016232  0.000130 -0.012016)
113:   1491.91   0.010250   51.80  0.002144  (-0.033828 -0.024379 -0.020133)
114:   1498.98   0.006222   31.44  0.001295  (-0.008435 -0.030452  0.017228)
115:   1506.37   0.098618  498.38  0.020430  (-0.006996  0.095052  0.106518)
116:   1511.21   0.015706   79.37  0.003243  (-0.016642  0.032931  0.043381)
117:   1542.18   0.035742  180.63  0.007233  (-0.032004 -0.003029  0.078735)
118:   1601.60   0.026917  136.03  0.005245  (-0.009892 -0.064325 -0.031768)
119:   1652.20   0.008362   42.26  0.001579  (-0.001552 -0.002310 -0.039645)
120:   1665.07   0.009928   50.17  0.001861  (-0.024302 -0.008246  0.034673)
121:   1683.36   0.036040  182.13  0.006681  (-0.081225 -0.009136 -0.000193)
122:   1780.46   0.075387  380.98  0.013213  ( 0.042114  0.011305 -0.106357)
123:   1795.65   0.113474  573.45  0.019720  (-0.075971 -0.021009  0.116222)
124:   3044.86   0.011301   57.11  0.001158  ( 0.015535  0.005274  0.029818)
125:   3072.89   0.007143   36.10  0.000725  ( 0.007166  0.022046  0.013712)
126:   3078.03   0.006427   32.48  0.000652  (-0.016613  0.012579 -0.014745)
127:   3114.69   0.000681    3.44  0.000068  ( 0.007372 -0.000161  0.003722)
128:   3117.33   0.007697   38.90  0.000770  ( 0.008524 -0.026407  0.000711)
129:   3136.24   0.001316    6.65  0.000131  ( 0.009400 -0.002987  0.005805)
130:   3156.06   0.003949   19.96  0.000390  ( 0.016815 -0.008412  0.006080)
131:   3163.49   0.003325   16.80  0.000328  (-0.007861 -0.015340 -0.005556)
132:   3172.99   0.002983   15.08  0.000293  (-0.012620 -0.003915  0.010900)
133:   3185.99   0.000803    4.06  0.000079  (-0.006325 -0.002305 -0.005772)
134:   3189.94   0.002368   11.97  0.000232  ( 0.007715  0.008215 -0.010229)
135:   3193.93   0.001891    9.56  0.000185  ( 0.009620 -0.002579 -0.009250)
136:   3196.62   0.001512    7.64  0.000148  ( 0.010830  0.003544  0.004215)
137:   3207.15   0.001155    5.84  0.000112  ( 0.010102 -0.002978 -0.001212)
138:   3212.27   0.002592   13.10  0.000252  ( 0.001807 -0.004647  0.015063)
139:   3214.15   0.003099   15.66  0.000301  (-0.009729 -0.002334  0.014169)
140:   3230.24   0.000425    2.15  0.000041  (-0.005838  0.000064  0.002648)
141:   3230.36   0.000370    1.87  0.000036  (-0.003664 -0.001194 -0.004571)
142:   3237.45   0.000094    0.47  0.000009  (-0.002453 -0.000821 -0.001539)
143:   3249.00   0.000010    0.05  0.000001  ( 0.000528 -0.000076 -0.000805)

--------------------------
THERMOCHEMISTRY AT 298.15K
--------------------------

Temperature         ... 298.15 K
Pressure            ... 1.00 atm
Total Mass          ... 388.38 AMU

Throughout the following assumptions are being made:
  (1) The electronic state is orbitally nondegenerate
  (2) There are no thermally accessible electronically excited states
  (3) Hindered rotations indicated by low frequency modes are not
      treated as such but are treated as vibrations and this may
      cause some error
  (4) All equations used are the standard statistical mechanics
      equations for an ideal gas
  (5) All vibrations are strictly harmonic

freq.      16.67  E(vib)   ...       0.57
freq.      46.54  E(vib)   ...       0.53
freq.      71.34  E(vib)   ...       0.50
freq.      77.51  E(vib)   ...       0.49
freq.      82.18  E(vib)   ...       0.48
freq.      92.74  E(vib)   ...       0.47
freq.      96.94  E(vib)   ...       0.46
freq.      99.49  E(vib)   ...       0.46
freq.     106.12  E(vib)   ...       0.45
freq.     112.33  E(vib)   ...       0.45
freq.     115.56  E(vib)   ...       0.44
freq.     121.95  E(vib)   ...       0.44
freq.     132.97  E(vib)   ...       0.42
freq.     145.69  E(vib)   ...       0.41
freq.     147.36  E(vib)   ...       0.41
freq.     168.48  E(vib)   ...       0.38
freq.     189.43  E(vib)   ...       0.36
freq.     201.00  E(vib)   ...       0.35
freq.     212.56  E(vib)   ...       0.34
freq.     231.93  E(vib)   ...       0.32
freq.     244.50  E(vib)   ...       0.31
freq.     248.43  E(vib)   ...       0.31
freq.     265.92  E(vib)   ...       0.29
freq.     286.10  E(vib)   ...       0.27
freq.     287.88  E(vib)   ...       0.27
freq.     312.19  E(vib)   ...       0.25
freq.     320.22  E(vib)   ...       0.25
freq.     330.68  E(vib)   ...       0.24
freq.     364.26  E(vib)   ...       0.22
freq.     393.23  E(vib)   ...       0.20
freq.     441.20  E(vib)   ...       0.17
freq.     475.60  E(vib)   ...       0.15
freq.     478.88  E(vib)   ...       0.15
freq.     484.30  E(vib)   ...       0.15
freq.     533.66  E(vib)   ...       0.13
freq.     551.98  E(vib)   ...       0.12
freq.     574.42  E(vib)   ...       0.11
freq.     588.46  E(vib)   ...       0.10
freq.     615.70  E(vib)   ...       0.10
freq.     634.77  E(vib)   ...       0.09
freq.     641.78  E(vib)   ...       0.09
freq.     661.64  E(vib)   ...       0.08
freq.     683.82  E(vib)   ...       0.07
freq.     702.65  E(vib)   ...       0.07
freq.     727.07  E(vib)   ...       0.06
freq.     755.13  E(vib)   ...       0.06
freq.     763.32  E(vib)   ...       0.06
freq.     772.99  E(vib)   ...       0.05
freq.     794.80  E(vib)   ...       0.05
freq.     797.51  E(vib)   ...       0.05
freq.     807.90  E(vib)   ...       0.05
freq.     833.56  E(vib)   ...       0.04
freq.     842.61  E(vib)   ...       0.04
freq.     849.59  E(vib)   ...       0.04
freq.     872.90  E(vib)   ...       0.04
freq.     877.48  E(vib)   ...       0.04
freq.     913.53  E(vib)   ...       0.03
freq.     926.03  E(vib)   ...       0.03
freq.     955.91  E(vib)   ...       0.03
freq.     966.86  E(vib)   ...       0.03
freq.     974.45  E(vib)   ...       0.03
freq.     987.43  E(vib)   ...       0.02
freq.     991.04  E(vib)   ...       0.02
freq.    1017.38  E(vib)   ...       0.02
freq.    1025.98  E(vib)   ...       0.02
freq.    1051.33  E(vib)   ...       0.02
freq.    1055.76  E(vib)   ...       0.02
freq.    1069.91  E(vib)   ...       0.02
freq.    1081.07  E(vib)   ...       0.02
freq.    1084.53  E(vib)   ...       0.02
freq.    1113.86  E(vib)   ...       0.01
freq.    1142.18  E(vib)   ...       0.01
freq.    1150.24  E(vib)   ...       0.01
freq.    1168.72  E(vib)   ...       0.01
freq.    1170.32  E(vib)   ...       0.01
freq.    1171.54  E(vib)   ...       0.01
freq.    1173.11  E(vib)   ...       0.01
freq.    1173.65  E(vib)   ...       0.01
freq.    1176.57  E(vib)   ...       0.01
freq.    1199.23  E(vib)   ...       0.01
freq.    1205.06  E(vib)   ...       0.01
freq.    1205.87  E(vib)   ...       0.01
freq.    1214.56  E(vib)   ...       0.01
freq.    1227.30  E(vib)   ...       0.01
freq.    1242.32  E(vib)   ...       0.01
freq.    1247.92  E(vib)   ...       0.01
freq.    1257.39  E(vib)   ...       0.01
freq.    1278.03  E(vib)   ...       0.01
freq.    1307.68  E(vib)   ...       0.01
freq.    1324.27  E(vib)   ...       0.01
freq.    1336.71  E(vib)   ...       0.01
freq.    1351.29  E(vib)   ...       0.01
freq.    1371.42  E(vib)   ...       0.01
freq.    1375.24  E(vib)   ...       0.01
freq.    1387.96  E(vib)   ...       0.00
freq.    1395.32  E(vib)   ...       0.00
freq.    1432.56  E(vib)   ...       0.00
freq.    1463.72  E(vib)   ...       0.00
freq.    1464.65  E(vib)   ...       0.00
freq.    1465.40  E(vib)   ...       0.00
freq.    1466.94  E(vib)   ...       0.00
freq.    1469.43  E(vib)   ...       0.00
freq.    1470.86  E(vib)   ...       0.00
freq.    1475.20  E(vib)   ...       0.00
freq.    1477.07  E(vib)   ...       0.00
freq.    1490.72  E(vib)   ...       0.00
freq.    1491.91  E(vib)   ...       0.00
freq.    1498.98  E(vib)   ...       0.00
freq.    1506.37  E(vib)   ...       0.00
freq.    1511.21  E(vib)   ...       0.00
freq.    1542.18  E(vib)   ...       0.00
freq.    1601.60  E(vib)   ...       0.00
freq.    1652.20  E(vib)   ...       0.00
freq.    1665.07  E(vib)   ...       0.00
freq.    1683.36  E(vib)   ...       0.00
freq.    1780.46  E(vib)   ...       0.00
freq.    1795.65  E(vib)   ...       0.00
freq.    3044.86  E(vib)   ...       0.00
freq.    3072.89  E(vib)   ...       0.00
freq.    3078.03  E(vib)   ...       0.00
freq.    3114.69  E(vib)   ...       0.00
freq.    3117.33  E(vib)   ...       0.00
freq.    3136.24  E(vib)   ...       0.00
freq.    3156.06  E(vib)   ...       0.00
freq.    3163.49  E(vib)   ...       0.00
freq.    3172.99  E(vib)   ...       0.00
freq.    3185.99  E(vib)   ...       0.00
freq.    3189.94  E(vib)   ...       0.00
freq.    3193.93  E(vib)   ...       0.00
freq.    3196.62  E(vib)   ...       0.00
freq.    3207.15  E(vib)   ...       0.00
freq.    3212.27  E(vib)   ...       0.00
freq.    3214.15  E(vib)   ...       0.00
freq.    3230.24  E(vib)   ...       0.00
freq.    3230.36  E(vib)   ...       0.00
freq.    3237.45  E(vib)   ...       0.00
freq.    3249.00  E(vib)   ...       0.00

------------
INNER ENERGY
------------

The inner energy is: U= E(el) + E(ZPE) + E(vib) + E(rot) + E(trans)
    E(el)   - is the total energy from the electronic structure calculation

Rotational constants in cm-1:     0.009035     0.006235     0.005091

                             ****ORCA TERMINATED NORMALLY****
TOTAL RUN TIME: 0 days 4 hours 7 minutes 45 seconds 900 msec
