                         Program Version 5.0.4 -  RELEASE  -
|  1> %pal nprocs 24 end
|  2> ! PBE0 D3BJ def2-TZVP TightSCF OPTTS FREQ TightOpt
|  3> ! CPCM(dmso)
|  4> %scf
|  5> MaxIter 800
|  6> end
|  7>
|  8> %geom
|  9> MaxIter 800
| 10> MaxStep 0.15
| 11> end
| 12>
| 13> *xyz 0 1
| 14> C       4.15500300      0.64857300      0.68188900
| 15> C       4.02357300      1.38180400     -0.53166200
| 16> C       2.77105500      1.59838000     -1.02481000
| 17> N       1.66730500      1.17553200     -0.35131500
| 18> C       1.74239500      0.40773300      0.80395500
| 19> C       3.05220600      0.19941300      1.35375200
| 20> C       0.35967400      1.11625000     -0.94515100
| 21> C      -0.56984800      2.11875700     -0.27241100
| 22> O      -0.25559500      2.83777700      0.64126300
| 23> O      -1.73220900      2.15860000     -0.90147400
| 24> C      -2.71722600      3.04371300     -0.37935800
| 25> H       5.15003300      0.47805500      1.10101300
| 26> H       2.57687900      2.11952200     -1.96420600
| 27> H       0.90604700      0.55102800      1.49477500
| 28> H       3.13404400     -0.31612300      2.31132800
| 29> H       0.42422500      1.43609700     -1.99459800
| 30> H      -3.59323900      2.94136100     -1.02852900
| 31> H      -2.35025400      4.07945500     -0.39069200
| 32> C       0.86657900     -1.16718600      0.02404800
| 33> C      -0.06111300     -0.42413600     -0.92861700
| 34> C      -1.52273300     -0.73765600     -0.74353900
| 35> C      -2.23710700     -1.37504100     -1.75580000
| 36> C      -3.58301300     -1.71012600     -1.59276300
| 37> C      -4.22107500     -1.40621500     -0.39386500
| 38> C      -3.53003500     -0.76659800      0.63791000
| 39> C      -2.18848700     -0.42845100      0.45826400
| 40> O      -1.43828300      0.21539300      1.37523700
| 41> C      -1.95773800      0.46463300      2.66156000
| 42> N       1.99896700     -1.79879300     -0.59656900
| 43> O       2.33122500     -1.42419200     -1.71090100
| 44> H       0.21710400     -0.78377000     -1.92631200
| 45> H      -1.72312000     -1.61582600     -2.69039700
| 46> H      -4.12472400     -2.20927100     -2.39892600
| 47> H      -5.27262300     -1.66637400     -0.24876800
| 48> H      -4.04125800     -0.53084100      1.57179000
| 49> H      -2.84914900      1.11062000      2.61722100
| 50> H      -1.16608600      0.98060000      3.21815800
| 51> H      -2.21077100     -0.47885100      3.17145000
| 52> O       2.64626300     -2.59103600      0.07119300
| 53> H      -2.97494800      2.76105700      0.65127100
| 54> H       4.89343200      1.75788400     -1.06913500
| 55> C       0.35074800     -1.96428700      1.08942900
| 56> N      -0.06114700     -2.57005500      1.99043600
| 57> *
| 58>
| 59>                          ****END OF INPUT****
 Total Charge           Charge          ....    0
 Multiplicity           Mult            ....    1
 Number of Electrons    NEL             ....  186
Dispersion correction           -0.060134440
FINAL SINGLE POINT ENERGY     -1235.512592984458
Dispersion correction            ... done
Dispersion correction           -0.059993410
FINAL SINGLE POINT ENERGY     -1235.511986584767
Dispersion correction            ... done
Dispersion correction           -0.059980755
FINAL SINGLE POINT ENERGY     -1235.514514796363
Dispersion correction            ... done
FINAL SINGLE POINT ENERGY     -1235.513794785146
FINAL SINGLE POINT ENERGY     -1235.514110862371
FINAL SINGLE POINT ENERGY     -1235.514934215461
FINAL SINGLE POINT ENERGY     -1235.515650439800
FINAL SINGLE POINT ENERGY     -1235.516157973383
FINAL SINGLE POINT ENERGY     -1235.516454814841
FINAL SINGLE POINT ENERGY     -1235.515514845818
FINAL SINGLE POINT ENERGY     -1235.514299045144
FINAL SINGLE POINT ENERGY     -1235.514326206055
FINAL SINGLE POINT ENERGY     -1235.514179321157
FINAL SINGLE POINT ENERGY     -1235.514367219625
FINAL SINGLE POINT ENERGY     -1235.514373829698
FINAL SINGLE POINT ENERGY     -1235.514378640599
FINAL SINGLE POINT ENERGY     -1235.514379026612
Dispersion correction           -0.059972054
FINAL SINGLE POINT ENERGY     -1235.514379622500
Dispersion correction            ... done
Dispersion correction           -0.059978460
FINAL SINGLE POINT ENERGY     -1235.514379300775
Dispersion correction            ... done
                    ***********************HURRAY********************

CARTESIAN COORDINATES (ANGSTROEM)
---------------------------------
  C      4.142983    0.640177    0.701657
  C      4.008366    1.416720   -0.479727
  C      2.764014    1.631276   -0.969025
  N      1.663685    1.165592   -0.325492
  C      1.740531    0.343082    0.792050
  C      3.053462    0.140349    1.338018
  C      0.367203    1.115075   -0.939074
  C     -0.569259    2.131884   -0.302650
  O     -0.258623    2.880435    0.586882
  O     -1.727728    2.149772   -0.938250
  C     -2.709447    3.064128   -0.439962
  H      5.129062    0.476850    1.121635
  H      2.568657    2.185231   -1.878434
  H      0.923606    0.479070    1.495850
  H      3.139477   -0.408462    2.266375
  H      0.457337    1.421797   -1.982811
  H     -3.588911    2.916387   -1.060598
  H     -2.348169    4.088924   -0.524280
  C      0.887377   -1.168698   -0.000794
  C     -0.064607   -0.418384   -0.924675
  C     -1.518049   -0.737397   -0.708263
  C     -2.230102   -1.381622   -1.708537
  C     -3.567142   -1.720171   -1.542438
  C     -4.200454   -1.411337   -0.350506
  C     -3.511983   -0.765745    0.669505
  C     -2.178027   -0.428070    0.487786
  O     -1.430654    0.220204    1.405354
  C     -1.993132    0.497632    2.674525
  N      1.988474   -1.818207   -0.660856
  O      2.315721   -1.414291   -1.766497
  H      0.179889   -0.768201   -1.926363
  H     -1.722676   -1.621286   -2.637160
  H     -4.103918   -2.222071   -2.338216
  H     -5.242793   -1.670019   -0.202492
  H     -4.018532   -0.525876    1.594808
  H     -2.855374    1.163307    2.584728
  H     -1.210326    0.990838    3.246862
  H     -2.290678   -0.426608    3.176527
  O      2.618507   -2.656332   -0.031439
  H     -2.936038    2.837237    0.601880
  H      4.867777    1.827932   -0.988749
  C      0.374462   -1.990907    1.043320
  N     -0.028990   -2.612808    1.925669

 Multiplicity           Mult            ....    1
 Number of Electrons    NEL             ....  186
 Basis Dimension        Dim             ....  908

ORBITAL ENERGIES
----------------

  NO   OCC          E(Eh)            E(eV)
   0   2.0000     -19.267557      -524.2969
   1   2.0000     -19.252141      -523.8774
   2   2.0000     -19.242091      -523.6039
   3   2.0000     -19.241068      -523.5761
   4   2.0000     -19.206697      -522.6408
   5   2.0000     -14.622859      -397.9082
   6   2.0000     -14.461922      -393.5289
   7   2.0000     -14.393204      -391.6590
   8   2.0000     -10.366358      -282.0830
   9   2.0000     -10.318405      -280.7781
  10   2.0000     -10.310686      -280.5680
  11   2.0000     -10.301086      -280.3068
  12   2.0000     -10.294038      -280.1150
  13   2.0000     -10.284314      -279.8504
  14   2.0000     -10.279260      -279.7129
  15   2.0000     -10.277109      -279.6544
  16   2.0000     -10.272634      -279.5326
  17   2.0000     -10.269393      -279.4444
  18   2.0000     -10.250949      -278.9425
  19   2.0000     -10.245115      -278.7837
  20   2.0000     -10.239301      -278.6255
  21   2.0000     -10.233126      -278.4575
  22   2.0000     -10.232327      -278.4358
  23   2.0000     -10.229328      -278.3542
  24   2.0000     -10.228419      -278.3294
  25   2.0000     -10.223504      -278.1957
  26   2.0000      -1.274158       -34.6716
  27   2.0000      -1.159297       -31.5461
  28   2.0000      -1.115682       -30.3593
  29   2.0000      -1.093331       -29.7511
  30   2.0000      -1.068575       -29.0774
  31   2.0000      -1.047105       -28.4932
  32   2.0000      -0.953751       -25.9529
  33   2.0000      -0.907261       -24.6878
  34   2.0000      -0.884007       -24.0551
  35   2.0000      -0.870288       -23.6817
  36   2.0000      -0.821695       -22.3595
  37   2.0000      -0.815114       -22.1804
  38   2.0000      -0.791174       -21.5289
  39   2.0000      -0.782852       -21.3025
  40   2.0000      -0.754092       -20.5199
  41   2.0000      -0.727736       -19.8027
  42   2.0000      -0.713924       -19.4269
  43   2.0000      -0.684418       -18.6240
  44   2.0000      -0.671498       -18.2724
  45   2.0000      -0.663298       -18.0492
  46   2.0000      -0.635502       -17.2929
  47   2.0000      -0.617984       -16.8162
  48   2.0000      -0.603871       -16.4322
  49   2.0000      -0.591863       -16.1054
  50   2.0000      -0.577396       -15.7118
  51   2.0000      -0.568790       -15.4776
  52   2.0000      -0.557634       -15.1740
  53   2.0000      -0.552047       -15.0220
  54   2.0000      -0.542222       -14.7546
  55   2.0000      -0.533448       -14.5159
  56   2.0000      -0.527144       -14.3443
  57   2.0000      -0.516950       -14.0669
  58   2.0000      -0.513490       -13.9728
  59   2.0000      -0.502463       -13.6727
  60   2.0000      -0.495579       -13.4854
  61   2.0000      -0.486804       -13.2466
  62   2.0000      -0.481757       -13.1093
  63   2.0000      -0.477124       -12.9832
  64   2.0000      -0.469398       -12.7730
  65   2.0000      -0.465300       -12.6615
  66   2.0000      -0.453181       -12.3317
  67   2.0000      -0.446646       -12.1539
  68   2.0000      -0.434940       -11.8353
  69   2.0000      -0.428216       -11.6523
  70   2.0000      -0.413449       -11.2505
  71   2.0000      -0.411508       -11.1977
  72   2.0000      -0.404223       -10.9995
  73   2.0000      -0.402453       -10.9513
  74   2.0000      -0.395762       -10.7692
  75   2.0000      -0.386648       -10.5212
  76   2.0000      -0.384636       -10.4665
  77   2.0000      -0.380665       -10.3584
  78   2.0000      -0.378956       -10.3119
  79   2.0000      -0.375317       -10.2129
  80   2.0000      -0.372005       -10.1228
  81   2.0000      -0.351178        -9.5561
  82   2.0000      -0.346904        -9.4397
  83   2.0000      -0.344372        -9.3708
  84   2.0000      -0.339284        -9.2324
  85   2.0000      -0.332885        -9.0583
  86   2.0000      -0.328117        -8.9285
  87   2.0000      -0.322634        -8.7793
  88   2.0000      -0.316338        -8.6080
  89   2.0000      -0.305974        -8.3260
  90   2.0000      -0.274929        -7.4812
  91   2.0000      -0.244533        -6.6541
  92   2.0000      -0.221256        -6.0207
  93   0.0000      -0.076915        -2.0930
  94   0.0000      -0.043715        -1.1895
  95   0.0000      -0.019691        -0.5358
  96   0.0000      -0.010254        -0.2790
  97   0.0000      -0.002480        -0.0675

MULLIKEN ATOMIC CHARGES
-----------------------
   0 C :   -0.096762
   1 C :   -0.181419
   2 C :   -0.110401
   3 N :    0.120151
   4 C :   -0.037727
   5 C :   -0.273116
   6 C :   -0.059136
   7 C :    0.295977
   8 O :   -0.375918
   9 O :   -0.212855
  10 C :   -0.259689
  11 H :    0.165785
  12 H :    0.184900
  13 H :    0.184232
  14 H :    0.164604
  15 H :    0.163436
  16 H :    0.163482
  17 H :    0.160443
  18 C :    0.019763
  19 C :    0.199424
  20 C :    0.022554
  21 C :   -0.254930
  22 C :   -0.196897
  23 C :   -0.145148
  24 C :   -0.310375
  25 C :    0.258233
  26 O :   -0.256314
  27 C :   -0.290845
  28 N :    0.499283
  29 O :   -0.385380
  30 H :    0.139693
  31 H :    0.148041
  32 H :    0.147611
  33 H :    0.152548
  34 H :    0.166718
  35 H :    0.158808
  36 H :    0.164568
  37 H :    0.159081
  38 O :   -0.373390
  39 H :    0.156359
  40 H :    0.170755
  41 C :   -0.276988
  42 N :   -0.069154
Sum of atomic charges:    0.0000000

LOEWDIN ATOMIC CHARGES
----------------------
   0 C :   -0.116087
   1 C :   -0.177811
   2 C :   -0.137917
   3 N :    0.290363
   4 C :   -0.137836
   5 C :   -0.144381
   6 C :   -0.153232
   7 C :   -0.491133
   8 O :    0.093720
   9 O :    0.285028
  10 C :   -0.298032
  11 H :    0.162676
  12 H :    0.166977
  13 H :    0.175959
  14 H :    0.161767
  15 H :    0.190649
  16 H :    0.124049
  17 H :    0.121175
  18 C :   -0.206795
  19 C :   -0.120823
  20 C :   -0.112088
  21 C :   -0.106024
  22 C :   -0.161893
  23 C :   -0.140210
  24 C :   -0.134572
  25 C :   -0.241042
  26 O :    0.272447
  27 C :   -0.324571
  28 N :   -0.040124
  29 O :   -0.050130
  30 H :    0.190777
  31 H :    0.160844
  32 H :    0.153014
  33 H :    0.155512
  34 H :    0.162048
  35 H :    0.118814
  36 H :    0.123708
  37 H :    0.120871
  38 O :   -0.052294
  39 H :    0.120398
  40 H :    0.159503
  41 C :   -0.184714
  42 N :    0.021413

  Mayer bond orders larger than 0.100000
B(  0-C ,  1-C ) :   1.1986 B(  0-C ,  5-C ) :   1.6666 B(  0-C , 11-H ) :   0.9541
B(  1-C ,  2-C ) :   1.6004 B(  1-C , 40-H ) :   0.9580 B(  2-C ,  3-N ) :   1.2025
B(  2-C , 12-H ) :   0.9423 B(  3-N ,  4-C ) :   1.0905 B(  3-N ,  6-C ) :   0.9489
B(  4-C ,  5-C ) :   1.1285 B(  4-C , 13-H ) :   0.9214 B(  4-C , 18-C ) :   0.5251
B(  5-C , 14-H ) :   0.9652 B(  6-C ,  7-C ) :   0.9767 B(  6-C , 15-H ) :   0.9021
B(  6-C , 19-C ) :   0.9478 B(  6-C , 20-C ) :   0.1064 B(  7-C ,  8-O ) :   2.0157
B(  7-C ,  9-O ) :   1.2501 B(  9-O , 10-C ) :   0.8815 B( 10-C , 16-H ) :   0.9644
B( 10-C , 17-H ) :   0.9621 B( 10-C , 39-H ) :   0.9694 B( 18-C , 19-C ) :   1.0417
B( 18-C , 28-N ) :   1.0022 B( 18-C , 41-C ) :   1.0427 B( 19-C , 20-C ) :   0.7602
B( 19-C , 30-H ) :   0.8894 B( 20-C , 21-C ) :   1.3786 B( 20-C , 25-C ) :   1.2280
B( 21-C , 22-C ) :   1.4001 B( 21-C , 31-H ) :   0.9802 B( 22-C , 23-C ) :   1.4000
B( 22-C , 32-H ) :   0.9825 B( 23-C , 24-C ) :   1.3904 B( 23-C , 33-H ) :   0.9693
B( 24-C , 25-C ) :   1.3918 B( 24-C , 34-H ) :   0.9594 B( 25-C , 26-O ) :   1.0650
B( 26-O , 27-C ) :   0.9192 B( 27-C , 35-H ) :   0.9609 B( 27-C , 36-H ) :   0.9636
B( 27-C , 37-H ) :   0.9604 B( 28-N , 29-O ) :   1.5060 B( 28-N , 38-O ) :   1.5586
B( 29-O , 38-O ) :   0.1589 B( 41-C , 42-N ) :   3.0496

Dispersion correction           -0.059975691
FINAL SINGLE POINT ENERGY     -1235.514380482688

DIPOLE MOMENT
-------------
                                X             Y             Z
Electronic contribution:     10.40814      -6.96775      -3.49575
Nuclear contribution   :    -12.17365      10.28451       2.57063
                        -----------------------------------------
Total Dipole Moment    :     -1.76551       3.31675      -0.92511
                        -----------------------------------------
Magnitude (a.u.)       :      3.86959
Magnitude (Debye)      :      9.83571

Dispersion correction in the Hessian             ... done   (      0.7 sec)

VIBRATIONAL FREQUENCIES
-----------------------

Scaling factor for frequencies =  1.000000000  (already applied!)

   0:         0.00 cm**-1
   1:         0.00 cm**-1
   2:         0.00 cm**-1
   3:         0.00 cm**-1
   4:         0.00 cm**-1
   5:         0.00 cm**-1
   6:      -383.82 cm**-1 ***imaginary mode***
   7:        27.73 cm**-1
   8:        50.88 cm**-1
   9:        70.86 cm**-1
  10:        80.45 cm**-1
  11:        86.54 cm**-1
  12:        93.54 cm**-1
  13:        94.66 cm**-1
  14:       109.22 cm**-1
  15:       119.73 cm**-1
  16:       120.75 cm**-1
  17:       126.45 cm**-1
  18:       138.31 cm**-1
  19:       151.66 cm**-1
  20:       175.99 cm**-1
  21:       188.00 cm**-1
  22:       207.79 cm**-1
  23:       218.31 cm**-1
  24:       240.03 cm**-1
  25:       248.62 cm**-1
  26:       275.38 cm**-1
  27:       288.86 cm**-1
  28:       298.93 cm**-1
  29:       317.53 cm**-1
  30:       335.78 cm**-1
  31:       370.77 cm**-1
  32:       433.63 cm**-1
  33:       450.49 cm**-1
  34:       476.82 cm**-1
  35:       497.58 cm**-1
  36:       504.44 cm**-1
  37:       537.02 cm**-1
  38:       551.49 cm**-1
  39:       558.09 cm**-1
  40:       574.93 cm**-1
  41:       591.31 cm**-1
  42:       619.79 cm**-1
  43:       633.59 cm**-1
  44:       645.85 cm**-1
  45:       670.12 cm**-1
  46:       701.19 cm**-1
  47:       717.34 cm**-1
  48:       747.35 cm**-1
  49:       766.52 cm**-1
  50:       774.34 cm**-1
  51:       794.62 cm**-1
  52:       799.57 cm**-1
  53:       819.72 cm**-1
  54:       831.37 cm**-1
  55:       840.77 cm**-1
  56:       869.76 cm**-1
  57:       879.32 cm**-1
  58:       914.31 cm**-1
  59:       934.09 cm**-1
  60:       958.71 cm**-1
  61:       964.24 cm**-1
  62:       991.27 cm**-1
  63:       998.83 cm**-1
  64:      1003.76 cm**-1
  65:      1014.87 cm**-1
  66:      1045.15 cm**-1
  67:      1050.78 cm**-1
  68:      1069.90 cm**-1
  69:      1081.10 cm**-1
  70:      1087.24 cm**-1
  71:      1094.26 cm**-1
  72:      1147.36 cm**-1
  73:      1168.02 cm**-1
  74:      1171.90 cm**-1
  75:      1172.86 cm**-1
  76:      1173.73 cm**-1
  77:      1197.79 cm**-1
  78:      1204.27 cm**-1
  79:      1207.04 cm**-1
  80:      1207.49 cm**-1
  81:      1224.99 cm**-1
  82:      1233.96 cm**-1
  83:      1238.74 cm**-1
  84:      1261.84 cm**-1
  85:      1268.59 cm**-1
  86:      1296.24 cm**-1
  87:      1307.91 cm**-1
  88:      1328.65 cm**-1
  89:      1348.83 cm**-1
  90:      1365.02 cm**-1
  91:      1371.89 cm**-1
  92:      1374.80 cm**-1
  93:      1388.48 cm**-1
  94:      1416.56 cm**-1
  95:      1464.87 cm**-1
  96:      1464.98 cm**-1
  97:      1469.26 cm**-1
  98:      1472.31 cm**-1
  99:      1476.98 cm**-1
 100:      1479.14 cm**-1
 101:      1484.11 cm**-1
 102:      1500.29 cm**-1
 103:      1511.55 cm**-1
 104:      1540.96 cm**-1
 105:      1583.65 cm**-1
 106:      1598.01 cm**-1
 107:      1652.30 cm**-1
 108:      1665.77 cm**-1
 109:      1689.98 cm**-1
 110:      1796.73 cm**-1
 111:      2345.76 cm**-1
 112:      3042.86 cm**-1
 113:      3075.57 cm**-1
 114:      3111.53 cm**-1
 115:      3117.57 cm**-1
 116:      3134.61 cm**-1
 117:      3152.96 cm**-1
 118:      3160.13 cm**-1
 119:      3169.20 cm**-1
 120:      3187.89 cm**-1
 121:      3192.92 cm**-1
 122:      3197.69 cm**-1
 123:      3202.99 cm**-1
 124:      3215.80 cm**-1
 125:      3226.27 cm**-1
 126:      3229.97 cm**-1
 127:      3230.89 cm**-1
 128:      3249.93 cm**-1

IR SPECTRUM
-----------

 Mode   freq       eps      Int      T**2         TX        TY        TZ
       cm**-1   L/(mol*cm) km/mol    a.u.
----------------------------------------------------------------------------
  7:     27.73   0.000405    2.05  0.004561  (-0.017682  0.020225  0.061959)
  8:     50.88   0.000216    1.09  0.001323  (-0.031084 -0.005310 -0.018116)
  9:     70.86   0.001212    6.13  0.005338  (-0.022039  0.059506 -0.036208)
 10:     80.45   0.000128    0.65  0.000496  ( 0.018266  0.012699 -0.001196)
 11:     86.54   0.000854    4.32  0.003081  (-0.040748  0.036472  0.009486)
 12:     93.54   0.000542    2.74  0.001808  ( 0.039042  0.014586 -0.008399)
 13:     94.66   0.000250    1.27  0.000826  ( 0.000362 -0.020180  0.020450)
 14:    109.22   0.000417    2.11  0.001192  (-0.008653 -0.032917  0.005790)
 15:    119.73   0.001412    7.13  0.003679  ( 0.041069  0.034898  0.027829)
 16:    120.75   0.000680    3.44  0.001757  ( 0.022807 -0.030325  0.017802)
 17:    126.45   0.000313    1.58  0.000773  (-0.009375 -0.026130 -0.001514)
 18:    138.31   0.000673    3.40  0.001519  (-0.021714 -0.030618 -0.010478)
 19:    151.66   0.000113    0.57  0.000233  ( 0.011647 -0.002366 -0.009602)
 20:    175.99   0.000849    4.29  0.001506  (-0.029865  0.024168  0.005485)
 21:    188.00   0.001286    6.50  0.002134  (-0.014926  0.038991 -0.019777)
 22:    207.79   0.001896    9.58  0.002848  (-0.004902  0.052852 -0.005491)
 23:    218.31   0.001582    8.00  0.002262  (-0.023586  0.012499 -0.039358)
 24:    240.03   0.002676   13.52  0.003479  ( 0.028356  0.051561  0.004104)
 25:    248.62   0.001453    7.34  0.001823  ( 0.000696 -0.040462  0.013620)
 26:    275.38   0.004306   21.76  0.004880  (-0.064177  0.009224 -0.026001)
 27:    288.86   0.001775    8.97  0.001917  ( 0.026379  0.033956  0.008268)
 28:    298.93   0.000246    1.24  0.000257  (-0.015003  0.005574 -0.000936)
 29:    317.53   0.001304    6.59  0.001281  (-0.002888 -0.035617 -0.002113)
 30:    335.78   0.000121    0.61  0.000113  ( 0.009685 -0.003146 -0.003010)
 31:    370.77   0.003115   15.74  0.002621  ( 0.044301 -0.025667  0.000252)
 32:    433.63   0.002524   12.76  0.001817  ( 0.036715  0.021512  0.002404)
 33:    450.49   0.000495    2.50  0.000343  ( 0.008482  0.015343  0.005940)
 34:    476.82   0.001106    5.59  0.000724  ( 0.009734 -0.021468 -0.012961)
 35:    497.58   0.002632   13.30  0.001650  ( 0.016890 -0.032162  0.018187)
 36:    504.44   0.002021   10.21  0.001250  (-0.006985  0.030232  0.016951)
 37:    537.02   0.010525   53.19  0.006116  ( 0.012456  0.070960  0.030426)
 38:    551.49   0.004758   24.04  0.002692  (-0.047482 -0.003810  0.020569)
 39:    558.09   0.005726   28.94  0.003202  ( 0.014920  0.054438 -0.003941)
 40:    574.93   0.006151   31.08  0.003339  ( 0.037241  0.026943  0.035011)
 41:    591.31   0.005952   30.08  0.003141  ( 0.014463  0.047418 -0.026147)
 42:    619.79   0.002368   11.97  0.001192  ( 0.026034 -0.008522  0.021017)
 43:    633.59   0.008197   41.42  0.004037  (-0.023521 -0.058333 -0.009003)
 44:    645.85   0.004935   24.94  0.002384  (-0.007630 -0.046408 -0.013130)
 45:    670.12   0.005564   28.12  0.002591  (-0.025294  0.044105  0.002449)
 46:    701.19   0.041895  211.72  0.018645  (-0.001830 -0.130720 -0.039424)
 47:    717.34   0.005572   28.16  0.002424  ( 0.031804  0.037221  0.005208)
 48:    747.35   0.009971   50.39  0.004164  (-0.010112 -0.041487 -0.048375)
 49:    766.52   0.012941   65.40  0.005269  ( 0.016490 -0.065629  0.026261)
 50:    774.34   0.013406   67.75  0.005403  (-0.014645  0.068419 -0.022518)
 51:    794.62   0.000542    2.74  0.000213  ( 0.005707  0.009121 -0.009863)
 52:    799.57   0.002835   14.33  0.001107  (-0.029951 -0.014464 -0.000492)
 53:    819.72   0.003647   18.43  0.001388  (-0.004580 -0.034913 -0.012189)
 54:    831.37   0.001316    6.65  0.000494  (-0.020369  0.002735 -0.008461)
 55:    840.77   0.003653   18.46  0.001356  ( 0.028236  0.019312  0.013630)
 56:    869.76   0.006737   34.05  0.002417  ( 0.009105  0.040858  0.025785)
 57:    879.32   0.002654   13.41  0.000942  ( 0.014206  0.011718  0.024554)
 58:    914.31   0.001501    7.58  0.000512  ( 0.007897 -0.014000 -0.015934)
 59:    934.09   0.006159   31.12  0.002058  ( 0.004419  0.043866 -0.010669)
 60:    958.71   0.001830    9.25  0.000596  ( 0.008286 -0.022957  0.000054)
 61:    964.24   0.000187    0.94  0.000060  ( 0.003464  0.006670 -0.001974)
 62:    991.27   0.000640    3.24  0.000202  (-0.005739  0.012074  0.004778)
 63:    998.83   0.004469   22.59  0.001396  (-0.021156  0.028011  0.012814)
 64:   1003.76   0.017318   87.52  0.005384  (-0.008097  0.072895  0.002184)
 65:   1014.87   0.000399    2.02  0.000123  ( 0.006015 -0.009061 -0.002093)
 66:   1045.15   0.008522   43.07  0.002545  ( 0.043221 -0.017613 -0.019143)
 67:   1050.78   0.006066   30.65  0.001801  ( 0.028665 -0.031291 -0.000737)
 68:   1069.90   0.011497   58.10  0.003353  ( 0.033954 -0.008886 -0.046059)
 69:   1081.10   0.002269   11.47  0.000655  (-0.017479  0.015452 -0.010521)
 70:   1087.24   0.023187  117.18  0.006655  (-0.018548  0.050729  0.061138)
 71:   1094.26   0.004659   23.54  0.001329  ( 0.031739  0.001376  0.017872)
 72:   1147.36   0.010660   53.87  0.002899  ( 0.011098 -0.008163 -0.052052)
 73:   1168.02   0.010642   53.78  0.002843  ( 0.010628 -0.051560  0.008477)
 74:   1171.90   0.000251    1.27  0.000067  (-0.000365 -0.005429  0.006100)
 75:   1172.86   0.000078    0.40  0.000021  (-0.002786  0.000190  0.003611)
 76:   1173.73   0.001185    5.99  0.000315  ( 0.006482 -0.006273 -0.015289)
 77:   1197.79   0.016788   84.84  0.004374  (-0.037560  0.054184  0.005201)
 78:   1204.27   0.015802   79.86  0.004095  (-0.031495 -0.054867 -0.009611)
 79:   1207.04   0.004757   24.04  0.001230  (-0.015133  0.022092  0.022647)
 80:   1207.49   0.002031   10.26  0.000525  ( 0.020487 -0.007808  0.006643)
 81:   1224.99   0.000223    1.13  0.000057  (-0.001578  0.006677 -0.003122)
 82:   1233.96   0.000426    2.15  0.000108  (-0.010167 -0.000171 -0.002084)
 83:   1238.74   0.024898  125.83  0.006272  ( 0.067793 -0.031923  0.025640)
 84:   1261.84   0.030834  155.82  0.007625  (-0.078699  0.030550 -0.022329)
 85:   1268.59   0.068279  345.05  0.016796  ( 0.111479 -0.065386  0.009647)
 86:   1296.24   0.018461   93.29  0.004444  (-0.034404  0.000226 -0.057102)
 87:   1307.91   0.050732  256.38  0.012105  (-0.038859 -0.056818 -0.085827)
 88:   1328.65   0.004829   24.40  0.001134  ( 0.027820 -0.010126 -0.016051)
 89:   1348.83   0.004297   21.72  0.000994  ( 0.029589 -0.005400  0.009465)
 90:   1365.02   0.020716  104.69  0.004736  (-0.008332  0.052781  0.043367)
 91:   1371.89   0.070646  357.02  0.016070  (-0.102884  0.072061  0.017087)
 92:   1374.80   0.048782  246.53  0.011073  (-0.033125  0.072011  0.069211)
 93:   1388.48   0.002304   11.65  0.000518  (-0.013122 -0.017200  0.007065)
 94:   1416.56   0.005338   26.98  0.001176  (-0.011766  0.011485  0.030093)
 95:   1464.87   0.004565   23.07  0.000972  ( 0.000871 -0.023757 -0.020182)
 96:   1464.98   0.003292   16.64  0.000701  ( 0.005051 -0.023493  0.011125)
 97:   1469.26   0.012970   65.55  0.002755  (-0.051525  0.001032  0.009944)
 98:   1472.31   0.006190   31.28  0.001312  (-0.024303  0.011590 -0.024228)
 99:   1476.98   0.009556   48.29  0.002019  (-0.029801 -0.004000  0.033391)
100:   1479.14   0.011158   56.39  0.002354  ( 0.034554  0.033197 -0.007616)
101:   1484.11   0.002049   10.35  0.000431  (-0.014761 -0.011281 -0.009251)
102:   1500.29   0.011090   56.05  0.002307  ( 0.014046  0.026267  0.037677)
103:   1511.55   0.006358   32.13  0.001313  ( 0.028984  0.015554 -0.015189)
104:   1540.96   0.030216  152.70  0.006119  ( 0.037513  0.043667  0.052963)
105:   1583.65   0.074824  378.13  0.014744  (-0.024493  0.059875 -0.102759)
106:   1598.01   0.069922  353.36  0.013655  ( 0.014446  0.084876 -0.079006)
107:   1652.30   0.008260   41.74  0.001560  (-0.001280 -0.012422 -0.037470)
108:   1665.77   0.012611   63.73  0.002362  (-0.033178 -0.023767 -0.026397)
109:   1689.98   0.045054  227.68  0.008319  (-0.089298 -0.014155 -0.012039)
110:   1796.73   0.105510  533.20  0.018325  ( 0.066499  0.077779  0.088621)
111:   2345.76   0.052806  266.86  0.007025  (-0.050060 -0.053967  0.040080)
112:   3042.86   0.011115   56.17  0.001140  ( 0.012422 -0.007746 -0.030424)
113:   3075.57   0.006069   30.67  0.000616  ( 0.017570 -0.016356 -0.006292)
114:   3111.53   0.000962    4.86  0.000096  ( 0.007503 -0.005971 -0.002118)
115:   3117.57   0.006565   33.18  0.000657  (-0.008641  0.022394 -0.008997)
116:   3134.61   0.000712    3.60  0.000071  ( 0.006570  0.000047 -0.005260)
117:   3152.96   0.000834    4.21  0.000083  (-0.008803  0.002229  0.000206)
118:   3160.13   0.003589   18.14  0.000354  (-0.006400 -0.012567  0.012471)
119:   3169.20   0.002941   14.86  0.000290  ( 0.012575  0.008487  0.007711)
120:   3187.89   0.000669    3.38  0.000065  (-0.005253  0.000921  0.006086)
121:   3192.92   0.001920    9.70  0.000188  ( 0.009508  0.002862  0.009435)
122:   3197.69   0.001598    8.07  0.000156  (-0.011096 -0.001183  0.005604)
123:   3202.99   0.001388    7.02  0.000135  (-0.009501  0.001726 -0.006482)
124:   3215.80   0.002755   13.92  0.000267  (-0.009942 -0.007359 -0.010695)
125:   3226.27   0.000426    2.15  0.000041  ( 0.004470  0.000545  0.004579)
126:   3229.97   0.000227    1.15  0.000022  ( 0.003233 -0.000691 -0.003322)
127:   3230.89   0.000090    0.46  0.000009  (-0.002432 -0.001243 -0.001130)
128:   3249.93   0.000040    0.20  0.000004  ( 0.001198 -0.000286  0.001535)

--------------------------
THERMOCHEMISTRY AT 298.15K
--------------------------

Temperature         ... 298.15 K
Pressure            ... 1.00 atm
Total Mass          ... 355.35 AMU

Throughout the following assumptions are being made:
  (1) The electronic state is orbitally nondegenerate
  (2) There are no thermally accessible electronically excited states
  (3) Hindered rotations indicated by low frequency modes are not
      treated as such but are treated as vibrations and this may
      cause some error
  (4) All equations used are the standard statistical mechanics
      equations for an ideal gas
  (5) All vibrations are strictly harmonic

freq.      27.73  E(vib)   ...       0.55
freq.      50.88  E(vib)   ...       0.52
freq.      70.86  E(vib)   ...       0.50
freq.      80.45  E(vib)   ...       0.48
freq.      86.54  E(vib)   ...       0.48
freq.      93.54  E(vib)   ...       0.47
freq.      94.66  E(vib)   ...       0.47
freq.     109.22  E(vib)   ...       0.45
freq.     119.73  E(vib)   ...       0.44
freq.     120.75  E(vib)   ...       0.44
freq.     126.45  E(vib)   ...       0.43
freq.     138.31  E(vib)   ...       0.42
freq.     151.66  E(vib)   ...       0.40
freq.     175.99  E(vib)   ...       0.38
freq.     188.00  E(vib)   ...       0.36
freq.     207.79  E(vib)   ...       0.34
freq.     218.31  E(vib)   ...       0.33
freq.     240.03  E(vib)   ...       0.31
freq.     248.62  E(vib)   ...       0.31
freq.     275.38  E(vib)   ...       0.28
freq.     288.86  E(vib)   ...       0.27
freq.     298.93  E(vib)   ...       0.26
freq.     317.53  E(vib)   ...       0.25
freq.     335.78  E(vib)   ...       0.24
freq.     370.77  E(vib)   ...       0.21
freq.     433.63  E(vib)   ...       0.17
freq.     450.49  E(vib)   ...       0.17
freq.     476.82  E(vib)   ...       0.15
freq.     497.58  E(vib)   ...       0.14
freq.     504.44  E(vib)   ...       0.14
freq.     537.02  E(vib)   ...       0.12
freq.     551.49  E(vib)   ...       0.12
freq.     558.09  E(vib)   ...       0.12
freq.     574.93  E(vib)   ...       0.11
freq.     591.31  E(vib)   ...       0.10
freq.     619.79  E(vib)   ...       0.09
freq.     633.59  E(vib)   ...       0.09
freq.     645.85  E(vib)   ...       0.09
freq.     670.12  E(vib)   ...       0.08
freq.     701.19  E(vib)   ...       0.07
freq.     717.34  E(vib)   ...       0.07
freq.     747.35  E(vib)   ...       0.06
freq.     766.52  E(vib)   ...       0.06
freq.     774.34  E(vib)   ...       0.05
freq.     794.62  E(vib)   ...       0.05
freq.     799.57  E(vib)   ...       0.05
freq.     819.72  E(vib)   ...       0.05
freq.     831.37  E(vib)   ...       0.04
freq.     840.77  E(vib)   ...       0.04
freq.     869.76  E(vib)   ...       0.04
freq.     879.32  E(vib)   ...       0.04
freq.     914.31  E(vib)   ...       0.03
freq.     934.09  E(vib)   ...       0.03
freq.     958.71  E(vib)   ...       0.03
freq.     964.24  E(vib)   ...       0.03
freq.     991.27  E(vib)   ...       0.02
freq.     998.83  E(vib)   ...       0.02
freq.    1003.76  E(vib)   ...       0.02
freq.    1014.87  E(vib)   ...       0.02
freq.    1045.15  E(vib)   ...       0.02
freq.    1050.78  E(vib)   ...       0.02
freq.    1069.90  E(vib)   ...       0.02
freq.    1081.10  E(vib)   ...       0.02
freq.    1087.24  E(vib)   ...       0.02
freq.    1094.26  E(vib)   ...       0.02
freq.    1147.36  E(vib)   ...       0.01
freq.    1168.02  E(vib)   ...       0.01
freq.    1171.90  E(vib)   ...       0.01
freq.    1172.86  E(vib)   ...       0.01
freq.    1173.73  E(vib)   ...       0.01
freq.    1197.79  E(vib)   ...       0.01
freq.    1204.27  E(vib)   ...       0.01
freq.    1207.04  E(vib)   ...       0.01
freq.    1207.49  E(vib)   ...       0.01
freq.    1224.99  E(vib)   ...       0.01
freq.    1233.96  E(vib)   ...       0.01
freq.    1238.74  E(vib)   ...       0.01
freq.    1261.84  E(vib)   ...       0.01
freq.    1268.59  E(vib)   ...       0.01
freq.    1296.24  E(vib)   ...       0.01
freq.    1307.91  E(vib)   ...       0.01
freq.    1328.65  E(vib)   ...       0.01
freq.    1348.83  E(vib)   ...       0.01
freq.    1365.02  E(vib)   ...       0.01
freq.    1371.89  E(vib)   ...       0.01
freq.    1374.80  E(vib)   ...       0.01
freq.    1388.48  E(vib)   ...       0.00
freq.    1416.56  E(vib)   ...       0.00
freq.    1464.87  E(vib)   ...       0.00
freq.    1464.98  E(vib)   ...       0.00
freq.    1469.26  E(vib)   ...       0.00
freq.    1472.31  E(vib)   ...       0.00
freq.    1476.98  E(vib)   ...       0.00
freq.    1479.14  E(vib)   ...       0.00
freq.    1484.11  E(vib)   ...       0.00
freq.    1500.29  E(vib)   ...       0.00
freq.    1511.55  E(vib)   ...       0.00
freq.    1540.96  E(vib)   ...       0.00
freq.    1583.65  E(vib)   ...       0.00
freq.    1598.01  E(vib)   ...       0.00
freq.    1652.30  E(vib)   ...       0.00
freq.    1665.77  E(vib)   ...       0.00
freq.    1689.98  E(vib)   ...       0.00
freq.    1796.73  E(vib)   ...       0.00
freq.    2345.76  E(vib)   ...       0.00
freq.    3042.86  E(vib)   ...       0.00
freq.    3075.57  E(vib)   ...       0.00
freq.    3111.53  E(vib)   ...       0.00
freq.    3117.57  E(vib)   ...       0.00
freq.    3134.61  E(vib)   ...       0.00
freq.    3152.96  E(vib)   ...       0.00
freq.    3160.13  E(vib)   ...       0.00
freq.    3169.20  E(vib)   ...       0.00
freq.    3187.89  E(vib)   ...       0.00
freq.    3192.92  E(vib)   ...       0.00
freq.    3197.69  E(vib)   ...       0.00
freq.    3202.99  E(vib)   ...       0.00
freq.    3215.80  E(vib)   ...       0.00
freq.    3226.27  E(vib)   ...       0.00
freq.    3229.97  E(vib)   ...       0.00
freq.    3230.89  E(vib)   ...       0.00
freq.    3249.93  E(vib)   ...       0.00

------------
INNER ENERGY
------------

The inner energy is: U= E(el) + E(ZPE) + E(vib) + E(rot) + E(trans)
    E(el)   - is the total energy from the electronic structure calculation
              = E(kin-el) + E(nuc-el) + E(el-el) + E(nuc-nuc)
    E(ZPE)  - the the zero temperature vibrational energy from the frequency calculation
    E(vib)  - the the finite temperature correction to E(ZPE) due to population
              of excited vibrational states
    E(rot)  - is the rotational thermal energy
    E(trans)- is the translational thermal energy

Summary of contributions to the inner energy U:
Electronic energy                ...  -1235.51438048 Eh
Zero point energy                ...      0.33285103 Eh     208.87 kcal/mol
Thermal vibrational correction   ...      0.01985352 Eh      12.46 kcal/mol
Thermal rotational correction    ...      0.00141627 Eh       0.89 kcal/mol
Thermal translational correction ...      0.00141627 Eh       0.89 kcal/mol
-----------------------------------------------------------------------
Total thermal energy                  -1235.15884339 Eh

Rotational constants in cm-1:     0.011536     0.006819     0.005660

                             ****ORCA TERMINATED NORMALLY****
TOTAL RUN TIME: 0 days 2 hours 55 minutes 15 seconds 541 msec
