                         Program Version 5.0.4 -  RELEASE  -
|  1> %pal nprocs 24 end
|  2> ! PBE0 D3BJ def2-TZVP TightSCF OPTTS FREQ TightOpt
|  3> ! CPCM(dmso)
|  4> %scf
|  5> MaxIter 800
|  6> end
|  7>
|  8> %geom
|  9> MaxIter 800
| 10> MaxStep 0.15
| 11> end
| 12>
| 13> *xyz 0 1
| 14> C       4.05916400      1.42269000      0.49768100
| 15> C       3.93746900      0.65447400      1.68422500
| 16> C       2.97993600     -0.31629900      1.73566900
| 17> N       2.20251700     -0.59443500      0.65199000
| 18> C       2.26435700      0.15050300     -0.51140100
| 19> C       3.26847200      1.15488300     -0.59082700
| 20> C       0.95695100     -1.32003500      0.80057400
| 21> C       0.92851400     -2.46762100     -0.20380700
| 22> O       1.07277900     -2.36180500     -1.39614400
| 23> O       0.77693000     -3.62719300      0.42084900
| 24> C       0.74727000     -4.79475800     -0.39898200
| 25> H       4.81990800      2.20500800      0.43702400
| 26> H       2.78664000     -0.92371400      2.62145300
| 27> H       1.94417200     -0.37028600     -1.41306200
| 28> H       3.38192800      1.69757100     -1.52986600
| 29> H       0.92109700     -1.76639400      1.80083200
| 30> H      -0.09067200     -4.73897600     -1.10846200
| 31> H       0.61466000     -5.64045500      0.28371300
| 32> C       0.27108700      0.86058000     -0.30316600
| 33> C      -0.13532600     -0.18717000      0.70149700
| 34> C      -1.58805200     -0.60336400      0.66859000
| 35> C      -2.05018000     -1.90322400      0.47412600
| 36> C      -3.41555000     -2.20004600      0.45357700
| 37> C      -4.34263600     -1.17899700      0.62798300
| 38> C      -3.91271300      0.13168100      0.84188500
| 39> C      -2.54578200      0.41737400      0.87759900
| 40> O      -2.04453800      1.64418000      1.11337100
| 41> C      -2.90254400      2.75948600      1.12309300
| 42> N       0.59208100      2.12753800      0.21827900
| 43> O       0.95541200      2.22320800      1.38742800
| 44> H       0.00943000      0.34191600      1.65668900
| 45> H      -1.34754200     -2.72545100      0.34941600
| 46> H      -3.74372200     -3.23012900      0.29932500
| 47> H      -5.41380800     -1.39472900      0.60691500
| 48> H      -4.64528700      0.92535600      0.99232600
| 49> H      -2.25910600      3.64036400      1.23889800
| 50> H      -3.61533500      2.71782800      1.96304400
| 51> H      -3.46176000      2.83926600      0.17642800
| 52> O       0.60419800      3.09080900     -0.54626100
| 53> H       1.68968200     -4.89386100     -0.95518200
| 54> H       4.57257200      0.83658400      2.55082000
| 55> C      -0.34718600      0.91469300     -1.66934800
| 56> F       0.50572900      1.35369700     -2.60945200
| 57> F      -0.72934600     -0.30911900     -2.05216700
| 58> F      -1.43931600      1.69427900     -1.75234400
| 59> *
| 60>
| 61>                          ****END OF INPUT****
 Total Charge           Charge          ....    0
 Multiplicity           Mult            ....    1
 Number of Electrons    NEL             ....  206
Dispersion correction           -0.059998768
FINAL SINGLE POINT ENERGY     -1480.205531678135
Dispersion correction            ... done
Dispersion correction           -0.059848791
FINAL SINGLE POINT ENERGY     -1480.205732787880
Dispersion correction            ... done
Dispersion correction           -0.059429240
FINAL SINGLE POINT ENERGY     -1480.207821996197
Dispersion correction            ... done
FINAL SINGLE POINT ENERGY     -1480.210020527858
FINAL SINGLE POINT ENERGY     -1480.211118313700
FINAL SINGLE POINT ENERGY     -1480.210722081123
FINAL SINGLE POINT ENERGY     -1480.208876178835
FINAL SINGLE POINT ENERGY     -1480.208370181002
FINAL SINGLE POINT ENERGY     -1480.208097811849
FINAL SINGLE POINT ENERGY     -1480.209065905536
FINAL SINGLE POINT ENERGY     -1480.208176975572
FINAL SINGLE POINT ENERGY     -1480.208192565770
FINAL SINGLE POINT ENERGY     -1480.207936844911
FINAL SINGLE POINT ENERGY     -1480.208178867160
FINAL SINGLE POINT ENERGY     -1480.208088223493
FINAL SINGLE POINT ENERGY     -1480.208195977779
FINAL SINGLE POINT ENERGY     -1480.208164332928
Dispersion correction           -0.058902032
FINAL SINGLE POINT ENERGY     -1480.208193901287
Dispersion correction            ... done
Dispersion correction           -0.058903977
FINAL SINGLE POINT ENERGY     -1480.208194039885
Dispersion correction            ... done
                    ***********************HURRAY********************

CARTESIAN COORDINATES (ANGSTROEM)
---------------------------------
  C      4.158654    1.450083    0.288670
  C      3.972162    0.856182    1.560461
  C      2.983500   -0.058511    1.704934
  N      2.228415   -0.455020    0.646383
  C      2.325603    0.145528   -0.597859
  C      3.380656    1.090154   -0.767879
  C      0.970354   -1.124382    0.851919
  C      0.932279   -2.455445    0.121763
  O      1.411035   -2.675191   -0.961939
  O      0.319401   -3.361750    0.866389
  C      0.163863   -4.659382    0.280073
  H      4.954383    2.172533    0.147581
  H      2.746547   -0.535668    2.646909
  H      2.079405   -0.508080   -1.425295
  H      3.542309    1.500686   -1.755714
  H      0.854610   -1.343643    1.911597
  H     -0.418987   -4.586561   -0.638871
  H     -0.364237   -5.253432    1.020511
  C      0.438539    0.880736   -0.618664
  C     -0.100692   -0.027423    0.463925
  C     -1.536615   -0.476237    0.336094
  C     -1.954606   -1.605087   -0.354845
  C     -3.291177   -1.974512   -0.415263
  C     -4.240634   -1.197139    0.224293
  C     -3.861164   -0.053121    0.911824
  C     -2.519913    0.311950    0.964451
  O     -2.081724    1.422256    1.594008
  C     -3.022921    2.234781    2.269342
  N      0.635099    2.225040   -0.223557
  O      0.959002    2.452710    0.938944
  H     -0.069429    0.613147    1.344994
  H     -1.235067   -2.210045   -0.887924
  H     -3.580998   -2.862603   -0.963588
  H     -5.289055   -1.470732    0.187740
  H     -4.612389    0.552379    1.400355
  H     -2.452103    3.050042    2.708814
  H     -3.531528    1.675856    3.059858
  H     -3.764110    2.640394    1.575107
  O      0.583123    3.112640   -1.073481
  H      1.139877   -5.092708    0.063438
  H      4.588015    1.122569    2.407250
  C     -0.037721    0.741717   -2.037947
  F      0.818773    1.249442   -2.936820
  F     -0.153808   -0.560225   -2.342245
  F     -1.234171    1.301983   -2.280911

 Multiplicity           Mult            ....    1
 Number of Electrons    NEL             ....  206
 Basis Dimension        Dim             ....  970

ORBITAL ENERGIES
----------------

  NO   OCC          E(Eh)            E(eV)
   0   2.0000     -24.810473      -675.1273
   1   2.0000     -24.805790      -674.9999
   2   2.0000     -24.805730      -674.9982
   3   2.0000     -19.272903      -524.4424
   4   2.0000     -19.247317      -523.7461
   5   2.0000     -19.226735      -523.1861
   6   2.0000     -19.225703      -523.1580
   7   2.0000     -19.213588      -522.8283
   8   2.0000     -14.610275      -397.5658
   9   2.0000     -14.468139      -393.6981
  10   2.0000     -10.480555      -285.1904
  11   2.0000     -10.370610      -282.1987
  12   2.0000     -10.307967      -280.4940
  13   2.0000     -10.301632      -280.3217
  14   2.0000     -10.294004      -280.1141
  15   2.0000     -10.293664      -280.1048
  16   2.0000     -10.286527      -279.9106
  17   2.0000     -10.274216      -279.5756
  18   2.0000     -10.269820      -279.4560
  19   2.0000     -10.267283      -279.3870
  20   2.0000     -10.253437      -279.0102
  21   2.0000     -10.246160      -278.8122
  22   2.0000     -10.242065      -278.7008
  23   2.0000     -10.233670      -278.4723
  24   2.0000     -10.232629      -278.4440
  25   2.0000     -10.230828      -278.3950
  26   2.0000     -10.226475      -278.2765
  27   2.0000     -10.222230      -278.1610
  28   2.0000      -1.358378       -36.9633
  29   2.0000      -1.267443       -34.4889
  30   2.0000      -1.263743       -34.3882
  31   2.0000      -1.257011       -34.2050
  32   2.0000      -1.163876       -31.6707
  33   2.0000      -1.110628       -30.2217
  34   2.0000      -1.075068       -29.2541
  35   2.0000      -1.072766       -29.1914
  36   2.0000      -1.049948       -28.5705
  37   2.0000      -0.907007       -24.6809
  38   2.0000      -0.882957       -24.0265
  39   2.0000      -0.872059       -23.7299
  40   2.0000      -0.821539       -22.3552
  41   2.0000      -0.817298       -22.2398
  42   2.0000      -0.794033       -21.6067
  43   2.0000      -0.779434       -21.2095
  44   2.0000      -0.756093       -20.5743
  45   2.0000      -0.744272       -20.2527
  46   2.0000      -0.723938       -19.6993
  47   2.0000      -0.709845       -19.3159
  48   2.0000      -0.689179       -18.7535
  49   2.0000      -0.666810       -18.1448
  50   2.0000      -0.652966       -17.7681
  51   2.0000      -0.629077       -17.1181
  52   2.0000      -0.626037       -17.0353
  53   2.0000      -0.622596       -16.9417
  54   2.0000      -0.616029       -16.7630
  55   2.0000      -0.604330       -16.4447
  56   2.0000      -0.582035       -15.8380
  57   2.0000      -0.568728       -15.4759
  58   2.0000      -0.564932       -15.3726
  59   2.0000      -0.556772       -15.1505
  60   2.0000      -0.551140       -14.9973
  61   2.0000      -0.537497       -14.6260
  62   2.0000      -0.529899       -14.4193
  63   2.0000      -0.524483       -14.2719
  64   2.0000      -0.517509       -14.0821
  65   2.0000      -0.514322       -13.9954
  66   2.0000      -0.508207       -13.8290
  67   2.0000      -0.501203       -13.6384
  68   2.0000      -0.497432       -13.5358
  69   2.0000      -0.496200       -13.5023
  70   2.0000      -0.490430       -13.3453
  71   2.0000      -0.485979       -13.2242
  72   2.0000      -0.477018       -12.9803
  73   2.0000      -0.470469       -12.8021
  74   2.0000      -0.461878       -12.5683
  75   2.0000      -0.458290       -12.4707
  76   2.0000      -0.452553       -12.3146
  77   2.0000      -0.449224       -12.2240
  78   2.0000      -0.448685       -12.2093
  79   2.0000      -0.436640       -11.8816
  80   2.0000      -0.434178       -11.8146
  81   2.0000      -0.429716       -11.6932
  82   2.0000      -0.421729       -11.4758
  83   2.0000      -0.410649       -11.1743
  84   2.0000      -0.404669       -11.0116
  85   2.0000      -0.396988       -10.8026
  86   2.0000      -0.390081       -10.6146
  87   2.0000      -0.387555       -10.5459
  88   2.0000      -0.384861       -10.4726
  89   2.0000      -0.382032       -10.3956
  90   2.0000      -0.365605        -9.9486
  91   2.0000      -0.346911        -9.4399
  92   2.0000      -0.344815        -9.3829
  93   2.0000      -0.340444        -9.2640
  94   2.0000      -0.338229        -9.2037
  95   2.0000      -0.328667        -8.9435
  96   2.0000      -0.327179        -8.9030
  97   2.0000      -0.321856        -8.7581
  98   2.0000      -0.311142        -8.4666
  99   2.0000      -0.300267        -8.1707
 100   2.0000      -0.273283        -7.4364
 101   2.0000      -0.243524        -6.6266
 102   2.0000      -0.222810        -6.0630
 103   0.0000      -0.071862        -1.9555
 104   0.0000      -0.047316        -1.2875
 105   0.0000      -0.021047        -0.5727
 106   0.0000      -0.010572        -0.2877
 107   0.0000       0.003040         0.0827

MULLIKEN ATOMIC CHARGES
-----------------------
   0 C :   -0.099965
   1 C :   -0.183523
   2 C :   -0.084853
   3 N :    0.100804
   4 C :   -0.018042
   5 C :   -0.244604
   6 C :    0.120053
   7 C :    0.190576
   8 O :   -0.365620
   9 O :   -0.206098
  10 C :   -0.254704
  11 H :    0.167170
  12 H :    0.188055
  13 H :    0.187975
  14 H :    0.168118
  15 H :    0.156619
  16 H :    0.157571
  17 H :    0.167248
  18 C :   -0.281887
  19 C :    0.027106
  20 C :   -0.047137
  21 C :   -0.146907
  22 C :   -0.228351
  23 C :   -0.141272
  24 C :   -0.309410
  25 C :    0.290470
  26 O :   -0.259314
  27 C :   -0.286361
  28 N :    0.515148
  29 O :   -0.409256
  30 H :    0.130057
  31 H :    0.165864
  32 H :    0.146672
  33 H :    0.152254
  34 H :    0.163490
  35 H :    0.162446
  36 H :    0.152081
  37 H :    0.152293
  38 O :   -0.404181
  39 H :    0.160875
  40 H :    0.173043
  41 C :    0.466050
  42 F :   -0.160009
  43 F :   -0.162794
  44 F :   -0.167749
Sum of atomic charges:   -0.0000000

LOEWDIN ATOMIC CHARGES
----------------------
   0 C :   -0.108557
   1 C :   -0.166134
   2 C :   -0.129376
   3 N :    0.295080
   4 C :   -0.132107
   5 C :   -0.141127
   6 C :   -0.155979
   7 C :   -0.490605
   8 O :    0.101379
   9 O :    0.276640
  10 C :   -0.297719
  11 H :    0.163408
  12 H :    0.167898
  13 H :    0.167654
  14 H :    0.162334
  15 H :    0.186039
  16 H :    0.120589
  17 H :    0.124490
  18 C :   -0.205476
  19 C :   -0.145454
  20 C :   -0.108090
  21 C :   -0.112985
  22 C :   -0.164960
  23 C :   -0.142735
  24 C :   -0.140125
  25 C :   -0.227590
  26 O :    0.249340
  27 C :   -0.324179
  28 N :   -0.051741
  29 O :   -0.078901
  30 H :    0.195557
  31 H :    0.158403
  32 H :    0.153055
  33 H :    0.155157
  34 H :    0.160867
  35 H :    0.122064
  36 H :    0.117942
  37 H :    0.117891
  38 O :   -0.090337
  39 H :    0.121620
  40 H :    0.161319
  41 C :   -0.678732
  42 F :    0.201315
  43 F :    0.218065
  44 F :    0.194805

  Mayer bond orders larger than 0.100000
B(  0-C ,  1-C ) :   1.2086 B(  0-C ,  5-C ) :   1.6575 B(  0-C , 11-H ) :   0.9544
B(  1-C ,  2-C ) :   1.6009 B(  1-C , 40-H ) :   0.9568 B(  2-C ,  3-N ) :   1.2039
B(  2-C , 12-H ) :   0.9385 B(  3-N ,  4-C ) :   1.1281 B(  3-N ,  6-C ) :   0.9107
B(  4-C ,  5-C ) :   1.1589 B(  4-C , 13-H ) :   0.9067 B(  4-C , 18-C ) :   0.5462
B(  5-C , 14-H ) :   0.9586 B(  6-C ,  7-C ) :   0.9722 B(  6-C , 15-H ) :   0.9293
B(  6-C , 19-C ) :   0.9087 B(  7-C ,  8-O ) :   1.9369 B(  7-C ,  9-O ) :   1.2624
B(  9-O , 10-C ) :   0.8762 B( 10-C , 16-H ) :   0.9633 B( 10-C , 17-H ) :   0.9626
B( 10-C , 39-H ) :   0.9639 B( 18-C , 19-C ) :   1.0167 B( 18-C , 28-N ) :   1.0966
B( 18-C , 29-O ) :   0.1132 B( 18-C , 41-C ) :   0.9938 B( 19-C , 20-C ) :   0.8086
B( 19-C , 30-H ) :   0.8747 B( 20-C , 21-C ) :   1.3739 B( 20-C , 25-C ) :   1.3312
B( 21-C , 22-C ) :   1.4022 B( 21-C , 31-H ) :   0.9225 B( 22-C , 23-C ) :   1.4086
B( 22-C , 32-H ) :   0.9854 B( 23-C , 24-C ) :   1.3950 B( 23-C , 33-H ) :   0.9689
B( 24-C , 25-C ) :   1.3605 B( 24-C , 34-H ) :   0.9618 B( 25-C , 26-O ) :   1.1158
B( 26-O , 27-C ) :   0.9414 B( 27-C , 35-H ) :   0.9641 B( 27-C , 36-H ) :   0.9618
B( 27-C , 37-H ) :   0.9616 B( 28-N , 29-O ) :   1.4801 B( 28-N , 38-O ) :   1.5065
B( 29-O , 38-O ) :   0.1330 B( 41-C , 42-F ) :   1.1574 B( 41-C , 43-F ) :   1.1118
B( 41-C , 44-F ) :   1.1411

Dispersion correction           -0.058900526
FINAL SINGLE POINT ENERGY     -1480.208192855802

DIPOLE MOMENT
-------------
                                X             Y             Z
Electronic contribution:      5.58578       8.78221     -17.67008
Nuclear contribution   :     -5.44903     -11.57599      20.39241
                        -----------------------------------------
Total Dipole Moment    :      0.13675      -2.79378       2.72233
                        -----------------------------------------
Magnitude (a.u.)       :      3.90321
Magnitude (Debye)      :      9.92117

Dispersion correction in the Hessian             ... done   (      0.7 sec)

VIBRATIONAL FREQUENCIES
-----------------------

Scaling factor for frequencies =  1.000000000  (already applied!)

   0:         0.00 cm**-1
   1:         0.00 cm**-1
   2:         0.00 cm**-1
   3:         0.00 cm**-1
   4:         0.00 cm**-1
   5:         0.00 cm**-1
   6:      -358.09 cm**-1 ***imaginary mode***
   7:        17.35 cm**-1
   8:        30.40 cm**-1
   9:        50.33 cm**-1
  10:        62.75 cm**-1
  11:        75.77 cm**-1
  12:        91.59 cm**-1
  13:        95.75 cm**-1
  14:        98.29 cm**-1
  15:       107.92 cm**-1
  16:       115.17 cm**-1
  17:       120.61 cm**-1
  18:       137.19 cm**-1
  19:       150.34 cm**-1
  20:       153.53 cm**-1
  21:       173.15 cm**-1
  22:       192.47 cm**-1
  23:       198.52 cm**-1
  24:       218.99 cm**-1
  25:       230.25 cm**-1
  26:       247.76 cm**-1
  27:       263.91 cm**-1
  28:       288.58 cm**-1
  29:       301.49 cm**-1
  30:       309.86 cm**-1
  31:       316.46 cm**-1
  32:       361.65 cm**-1
  33:       366.46 cm**-1
  34:       378.03 cm**-1
  35:       421.14 cm**-1
  36:       443.70 cm**-1
  37:       471.20 cm**-1
  38:       486.18 cm**-1
  39:       516.07 cm**-1
  40:       540.35 cm**-1
  41:       554.58 cm**-1
  42:       566.01 cm**-1
  43:       588.58 cm**-1
  44:       595.20 cm**-1
  45:       624.66 cm**-1
  46:       635.91 cm**-1
  47:       641.42 cm**-1
  48:       661.56 cm**-1
  49:       702.13 cm**-1
  50:       735.30 cm**-1
  51:       739.53 cm**-1
  52:       757.42 cm**-1
  53:       771.53 cm**-1
  54:       784.00 cm**-1
  55:       787.70 cm**-1
  56:       805.40 cm**-1
  57:       826.13 cm**-1
  58:       840.92 cm**-1
  59:       852.43 cm**-1
  60:       864.03 cm**-1
  61:       875.81 cm**-1
  62:       912.98 cm**-1
  63:       930.63 cm**-1
  64:       965.37 cm**-1
  65:       972.18 cm**-1
  66:       987.91 cm**-1
  67:       994.09 cm**-1
  68:      1003.64 cm**-1
  69:      1017.42 cm**-1
  70:      1048.68 cm**-1
  71:      1055.70 cm**-1
  72:      1074.36 cm**-1
  73:      1081.33 cm**-1
  74:      1087.26 cm**-1
  75:      1093.77 cm**-1
  76:      1109.51 cm**-1
  77:      1131.77 cm**-1
  78:      1142.89 cm**-1
  79:      1166.00 cm**-1
  80:      1171.51 cm**-1
  81:      1173.39 cm**-1
  82:      1176.02 cm**-1
  83:      1182.42 cm**-1
  84:      1193.71 cm**-1
  85:      1195.74 cm**-1
  86:      1204.90 cm**-1
  87:      1205.71 cm**-1
  88:      1215.91 cm**-1
  89:      1236.37 cm**-1
  90:      1249.32 cm**-1
  91:      1254.44 cm**-1
  92:      1299.34 cm**-1
  93:      1314.19 cm**-1
  94:      1327.91 cm**-1
  95:      1330.74 cm**-1
  96:      1361.64 cm**-1
  97:      1362.28 cm**-1
  98:      1382.06 cm**-1
  99:      1393.65 cm**-1
 100:      1402.32 cm**-1
 101:      1434.75 cm**-1
 102:      1465.08 cm**-1
 103:      1466.04 cm**-1
 104:      1470.20 cm**-1
 105:      1474.17 cm**-1
 106:      1474.71 cm**-1
 107:      1483.84 cm**-1
 108:      1489.35 cm**-1
 109:      1498.76 cm**-1
 110:      1506.57 cm**-1
 111:      1535.48 cm**-1
 112:      1553.96 cm**-1
 113:      1598.79 cm**-1
 114:      1645.84 cm**-1
 115:      1664.53 cm**-1
 116:      1687.40 cm**-1
 117:      1797.25 cm**-1
 118:      3038.34 cm**-1
 119:      3073.62 cm**-1
 120:      3110.12 cm**-1
 121:      3117.75 cm**-1
 122:      3152.06 cm**-1
 123:      3157.94 cm**-1
 124:      3167.08 cm**-1
 125:      3195.33 cm**-1
 126:      3196.17 cm**-1
 127:      3199.71 cm**-1
 128:      3206.37 cm**-1
 129:      3211.67 cm**-1
 130:      3231.11 cm**-1
 131:      3232.43 cm**-1
 132:      3232.57 cm**-1
 133:      3239.16 cm**-1
 134:      3249.36 cm**-1

IR SPECTRUM
-----------

 Mode   freq       eps      Int      T**2         TX        TY        TZ
       cm**-1   L/(mol*cm) km/mol    a.u.
----------------------------------------------------------------------------
  7:     17.35   0.000313    1.58  0.005626  (-0.050224  0.004478  0.055527)
  8:     30.40   0.000120    0.60  0.001228  (-0.006470 -0.017048 -0.029919)
  9:     50.33   0.000373    1.88  0.002311  ( 0.024230  0.023621 -0.034150)
 10:     62.75   0.000489    2.47  0.002434  (-0.037925  0.015447 -0.027513)
 11:     75.77   0.000469    2.37  0.001930  (-0.024481  0.019793 -0.030648)
 12:     91.59   0.000501    2.53  0.001707  ( 0.020292  0.033905  0.012068)
 13:     95.75   0.000373    1.89  0.001217  ( 0.019201 -0.015865 -0.024421)
 14:     98.29   0.000757    3.82  0.002403  (-0.012686 -0.031015  0.035778)
 15:    107.92   0.000856    4.33  0.002477  (-0.032342  0.023839 -0.029364)
 16:    115.17   0.000084    0.42  0.000228  (-0.011047  0.000814 -0.010249)
 17:    120.61   0.000736    3.72  0.001904  ( 0.041992 -0.010012  0.006378)
 18:    137.19   0.000151    0.76  0.000344  ( 0.017525  0.002204 -0.005651)
 19:    150.34   0.000271    1.37  0.000564  (-0.022059  0.008418 -0.002461)
 20:    153.53   0.000031    0.16  0.000063  ( 0.007779  0.000413  0.001365)
 21:    173.15   0.000464    2.34  0.000836  (-0.024591  0.009939 -0.011499)
 22:    192.47   0.000374    1.89  0.000607  (-0.022323  0.009265 -0.004778)
 23:    198.52   0.001646    8.32  0.002587  ( 0.036141 -0.031746  0.016529)
 24:    218.99   0.001485    7.50  0.002116  ( 0.045262  0.002099 -0.007932)
 25:    230.25   0.001752    8.85  0.002375  ( 0.032120 -0.022276  0.029102)
 26:    247.76   0.001311    6.62  0.001651  ( 0.038199  0.005277 -0.012803)
 27:    263.91   0.001476    7.46  0.001746  ( 0.004195  0.029248 -0.029543)
 28:    288.58   0.000651    3.29  0.000704  ( 0.005660  0.024876 -0.007263)
 29:    301.49   0.002515   12.71  0.002603  ( 0.017890  0.046235 -0.012067)
 30:    309.86   0.003344   16.90  0.003368  (-0.030692  0.035376 -0.034274)
 31:    316.46   0.000597    3.02  0.000589  ( 0.016896 -0.017149  0.003100)
 32:    361.65   0.002071   10.46  0.001787  ( 0.039629  0.003615  0.014256)
 33:    366.46   0.003861   19.51  0.003288  ( 0.014680  0.054950 -0.007269)
 34:    378.03   0.009476   47.89  0.007822  (-0.053131  0.070007 -0.009928)
 35:    421.14   0.002037   10.30  0.001510  ( 0.022506 -0.017808  0.026190)
 36:    443.70   0.002432   12.29  0.001711  ( 0.004786 -0.040801  0.004801)
 37:    471.20   0.000157    0.79  0.000104  (-0.003085  0.007241  0.006475)
 38:    486.18   0.001867    9.43  0.001198  (-0.001031  0.031610 -0.014069)
 39:    516.07   0.002929   14.80  0.001771  ( 0.022108 -0.016612  0.031726)
 40:    540.35   0.001824    9.22  0.001053  ( 0.011918  0.026372 -0.014696)
 41:    554.58   0.008277   41.83  0.004658  (-0.052207  0.031458 -0.030699)
 42:    566.01   0.000872    4.41  0.000481  ( 0.018556  0.010408  0.005314)
 43:    588.58   0.000910    4.60  0.000482  (-0.016943 -0.012291 -0.006654)
 44:    595.20   0.027665  139.81  0.014505  ( 0.092109 -0.073023  0.026235)
 45:    624.66   0.007457   37.69  0.003725  ( 0.058600 -0.004443 -0.016488)
 46:    635.91   0.008622   43.57  0.004231  ( 0.043359 -0.048142 -0.005792)
 47:    641.42   0.005223   26.40  0.002541  ( 0.001809 -0.029435  0.040883)
 48:    661.56   0.003984   20.14  0.001879  (-0.031654  0.022053  0.019779)
 49:    702.13   0.028144  142.23  0.012509  ( 0.072386 -0.085072  0.005653)
 50:    735.30   0.011933   60.30  0.005064  (-0.048957  0.050930 -0.008576)
 51:    739.53   0.006279   31.73  0.002650  ( 0.022045  0.040388  0.023073)
 52:    757.42   0.009312   47.06  0.003836  (-0.047057  0.006443  0.039757)
 53:    771.53   0.021953  110.94  0.008879  ( 0.030559 -0.036755  0.081207)
 54:    784.00   0.003464   17.50  0.001379  ( 0.027487 -0.021579 -0.012548)
 55:    787.70   0.003798   19.19  0.001505  ( 0.017436  0.028426 -0.019813)
 56:    805.40   0.005906   29.84  0.002288  (-0.014032 -0.044789 -0.009233)
 57:    826.13   0.003856   19.48  0.001456  ( 0.015940 -0.034099  0.006293)
 58:    840.92   0.003222   16.28  0.001196  (-0.030718  0.015605  0.002900)
 59:    852.43   0.006606   33.38  0.002418  (-0.029217 -0.019400 -0.034472)
 60:    864.03   0.006338   32.03  0.002289  (-0.035011  0.029251  0.014414)
 61:    875.81   0.000912    4.61  0.000325  ( 0.006537 -0.010701  0.012956)
 62:    912.98   0.001152    5.82  0.000394  ( 0.005315  0.003710 -0.018758)
 63:    930.63   0.011806   59.66  0.003959  ( 0.020508 -0.049219  0.033401)
 64:    965.37   0.000585    2.95  0.000189  ( 0.002014 -0.012715  0.004821)
 65:    972.18   0.000187    0.94  0.000060  ( 0.003697  0.006028  0.003143)
 66:    987.91   0.014101   71.26  0.004454  ( 0.037284 -0.049762  0.024249)
 67:    994.09   0.026722  135.04  0.008389  (-0.060769  0.043377 -0.053048)
 68:   1003.64   0.001621    8.19  0.000504  ( 0.016338 -0.006473  0.013975)
 69:   1017.42   0.000074    0.38  0.000023  (-0.002541 -0.004019  0.000397)
 70:   1048.68   0.004531   22.90  0.001348  ( 0.000866  0.035507  0.009323)
 71:   1055.70   0.009448   47.75  0.002793  (-0.001288 -0.034219 -0.040252)
 72:   1074.36   0.011404   57.63  0.003313  ( 0.026195 -0.027105 -0.043493)
 73:   1081.33   0.028201  142.52  0.008139  (-0.065614  0.003759 -0.061800)
 74:   1087.26   0.010302   52.06  0.002957  ( 0.016176  0.036089  0.037321)
 75:   1093.77   0.007243   36.60  0.002066  (-0.036218 -0.018290  0.020498)
 76:   1109.51   0.011382   57.52  0.003201  ( 0.015751 -0.018817  0.050982)
 77:   1131.77   0.092779  468.87  0.025582  (-0.146992  0.043143  0.045977)
 78:   1142.89   0.015730   79.49  0.004295  ( 0.009338 -0.040340 -0.050799)
 79:   1166.00   0.046464  234.81  0.012435  ( 0.022788 -0.106107  0.025642)
 80:   1171.51   0.000312    1.58  0.000083  ( 0.003764  0.004673 -0.006860)
 81:   1173.39   0.000299    1.51  0.000080  (-0.007746  0.002804 -0.003421)
 82:   1176.02   0.000921    4.65  0.000244  ( 0.015394 -0.000905 -0.002569)
 83:   1182.42   0.056147  283.74  0.014818  (-0.006214 -0.121343 -0.007454)
 84:   1193.71   0.010007   50.57  0.002616  (-0.041979 -0.026377 -0.012573)
 85:   1195.74   0.006245   31.56  0.001630  ( 0.003028 -0.037757 -0.013965)
 86:   1204.90   0.021756  109.94  0.005635  (-0.056452 -0.048795  0.008176)
 87:   1205.71   0.004355   22.01  0.001127  ( 0.032010 -0.009801  0.002542)
 88:   1215.91   0.001331    6.73  0.000342  ( 0.001748  0.016093 -0.008921)
 89:   1236.37   0.018345   92.71  0.004630  ( 0.021456  0.062170 -0.017464)
 90:   1249.32   0.055617  281.07  0.013893  ( 0.056038  0.103020  0.011795)
 91:   1254.44   0.066124  334.16  0.016449  ( 0.016220  0.107901 -0.067408)
 92:   1299.34   0.051467  260.09  0.012361  (-0.007144  0.095000  0.057313)
 93:   1314.19   0.004978   25.15  0.001182  ( 0.006620 -0.002097  0.033671)
 94:   1327.91   0.023502  118.77  0.005523  (-0.026039 -0.056888 -0.040110)
 95:   1330.74   0.002244   11.34  0.000526  (-0.002492  0.010819 -0.020071)
 96:   1361.64   0.067394  340.58  0.015445  ( 0.006888 -0.123632  0.010636)
 97:   1362.28   0.022675  114.59  0.005194  ( 0.053626  0.041783  0.023932)
 98:   1382.06   0.063806  322.45  0.014407  (-0.069484  0.096671 -0.015292)
 99:   1393.65   0.022408  113.24  0.005018  (-0.000219  0.062378  0.033563)
100:   1402.32   0.022322  112.81  0.004967  ( 0.007211 -0.004107  0.069990)
101:   1434.75   0.012827   64.82  0.002790  ( 0.007505 -0.052277 -0.000815)
102:   1465.08   0.003623   18.31  0.000772  (-0.023313  0.014996  0.001805)
103:   1466.04   0.008694   43.94  0.001851  (-0.014289 -0.037500 -0.015497)
104:   1470.20   0.012900   65.19  0.002738  (-0.020653 -0.048028 -0.002185)
105:   1474.17   0.003071   15.52  0.000650  (-0.003495  0.012676 -0.021845)
106:   1474.71   0.007375   37.27  0.001561  (-0.010104 -0.014434 -0.035359)
107:   1483.84   0.005011   25.32  0.001054  (-0.008067 -0.027914 -0.014479)
108:   1489.35   0.010088   50.98  0.002114  (-0.028864 -0.001816 -0.035740)
109:   1498.76   0.014633   73.95  0.003047  (-0.003268  0.051527  0.019521)
110:   1506.57   0.001754    8.86  0.000363  ( 0.009664  0.001074  0.016395)
111:   1535.48   0.030148  152.35  0.006127  ( 0.010344  0.072452  0.027763)
112:   1553.96   0.128177  647.75  0.025740  ( 0.032033 -0.056792  0.146591)
113:   1598.79   0.022246  112.42  0.004342  (-0.031032  0.026203 -0.051889)
114:   1645.84   0.004732   23.91  0.000897  ( 0.019858 -0.017824 -0.013607)
115:   1664.53   0.011081   56.00  0.002077  (-0.010923 -0.037392 -0.023665)
116:   1687.40   0.035197  177.87  0.006509  (-0.067515 -0.043579 -0.007194)
117:   1797.25   0.083075  419.83  0.014425  ( 0.062424  0.004319 -0.102514)
118:   3038.34   0.012454   62.94  0.001279  (-0.022286  0.021588  0.017789)
119:   3073.62   0.004988   25.21  0.000506  ( 0.003804  0.021020  0.007082)
120:   3110.12   0.007210   36.44  0.000723  ( 0.003458 -0.014423  0.022439)
121:   3117.75   0.004382   22.14  0.000439  ( 0.003585 -0.016206 -0.012771)
122:   3152.06   0.000807    4.08  0.000080  (-0.001570 -0.008709 -0.001249)
123:   3157.94   0.003310   16.73  0.000327  ( 0.014873 -0.007019  0.007527)
124:   3167.08   0.003684   18.62  0.000363  (-0.010498 -0.014088 -0.007368)
125:   3195.33   0.000494    2.50  0.000048  ( 0.006866 -0.000226 -0.001036)
126:   3196.17   0.001779    8.99  0.000174  ( 0.006703  0.006574 -0.009247)
127:   3199.71   0.003860   19.51  0.000376  (-0.004370  0.018760  0.002336)
128:   3206.37   0.000984    4.97  0.000096  (-0.008197 -0.003468  0.004074)
129:   3211.67   0.002962   14.97  0.000288  (-0.012318 -0.010352 -0.005376)
130:   3231.11   0.000562    2.84  0.000054  (-0.005940 -0.002786  0.003353)
131:   3232.43   0.000648    3.27  0.000063  (-0.005536  0.004375  0.003574)
132:   3232.57   0.000080    0.40  0.000008  ( 0.000488  0.002502  0.001091)
133:   3239.16   0.001158    5.85  0.000112  (-0.004049  0.008335  0.005073)
134:   3249.36   0.000007    0.04  0.000001  ( 0.000747  0.000302 -0.000216)

--------------------------
THERMOCHEMISTRY AT 298.15K
--------------------------

Temperature         ... 298.15 K
Pressure            ... 1.00 atm
Total Mass          ... 398.34 AMU

Throughout the following assumptions are being made:
  (1) The electronic state is orbitally nondegenerate
  (2) There are no thermally accessible electronically excited states
  (3) Hindered rotations indicated by low frequency modes are not
      treated as such but are treated as vibrations and this may
      cause some error
  (4) All equations used are the standard statistical mechanics
      equations for an ideal gas
  (5) All vibrations are strictly harmonic

freq.      17.35  E(vib)   ...       0.57
freq.      30.40  E(vib)   ...       0.55
freq.      50.33  E(vib)   ...       0.52
freq.      62.75  E(vib)   ...       0.51
freq.      75.77  E(vib)   ...       0.49
freq.      91.59  E(vib)   ...       0.47
freq.      95.75  E(vib)   ...       0.47
freq.      98.29  E(vib)   ...       0.46
freq.     107.92  E(vib)   ...       0.45
freq.     115.17  E(vib)   ...       0.44
freq.     120.61  E(vib)   ...       0.44
freq.     137.19  E(vib)   ...       0.42
freq.     150.34  E(vib)   ...       0.40
freq.     153.53  E(vib)   ...       0.40
freq.     173.15  E(vib)   ...       0.38
freq.     192.47  E(vib)   ...       0.36
freq.     198.52  E(vib)   ...       0.35
freq.     218.99  E(vib)   ...       0.33
freq.     230.25  E(vib)   ...       0.32
freq.     247.76  E(vib)   ...       0.31
freq.     263.91  E(vib)   ...       0.29
freq.     288.58  E(vib)   ...       0.27
freq.     301.49  E(vib)   ...       0.26
freq.     309.86  E(vib)   ...       0.26
freq.     316.46  E(vib)   ...       0.25
freq.     361.65  E(vib)   ...       0.22
freq.     366.46  E(vib)   ...       0.22
freq.     378.03  E(vib)   ...       0.21
freq.     421.14  E(vib)   ...       0.18
freq.     443.70  E(vib)   ...       0.17
freq.     471.20  E(vib)   ...       0.15
freq.     486.18  E(vib)   ...       0.15
freq.     516.07  E(vib)   ...       0.13
freq.     540.35  E(vib)   ...       0.12
freq.     554.58  E(vib)   ...       0.12
freq.     566.01  E(vib)   ...       0.11
freq.     588.58  E(vib)   ...       0.10
freq.     595.20  E(vib)   ...       0.10
freq.     624.66  E(vib)   ...       0.09
freq.     635.91  E(vib)   ...       0.09
freq.     641.42  E(vib)   ...       0.09
freq.     661.56  E(vib)   ...       0.08
freq.     702.13  E(vib)   ...       0.07
freq.     735.30  E(vib)   ...       0.06
freq.     739.53  E(vib)   ...       0.06
freq.     757.42  E(vib)   ...       0.06
freq.     771.53  E(vib)   ...       0.05
freq.     784.00  E(vib)   ...       0.05
freq.     787.70  E(vib)   ...       0.05
freq.     805.40  E(vib)   ...       0.05
freq.     826.13  E(vib)   ...       0.04
freq.     840.92  E(vib)   ...       0.04
freq.     852.43  E(vib)   ...       0.04
freq.     864.03  E(vib)   ...       0.04
freq.     875.81  E(vib)   ...       0.04
freq.     912.98  E(vib)   ...       0.03
freq.     930.63  E(vib)   ...       0.03
freq.     965.37  E(vib)   ...       0.03
freq.     972.18  E(vib)   ...       0.03
freq.     987.91  E(vib)   ...       0.02
freq.     994.09  E(vib)   ...       0.02
freq.    1003.64  E(vib)   ...       0.02
freq.    1017.42  E(vib)   ...       0.02
freq.    1048.68  E(vib)   ...       0.02
freq.    1055.70  E(vib)   ...       0.02
freq.    1074.36  E(vib)   ...       0.02
freq.    1081.33  E(vib)   ...       0.02
freq.    1087.26  E(vib)   ...       0.02
freq.    1093.77  E(vib)   ...       0.02
freq.    1109.51  E(vib)   ...       0.02
freq.    1131.77  E(vib)   ...       0.01
freq.    1142.89  E(vib)   ...       0.01
freq.    1166.00  E(vib)   ...       0.01
freq.    1171.51  E(vib)   ...       0.01
freq.    1173.39  E(vib)   ...       0.01
freq.    1176.02  E(vib)   ...       0.01
freq.    1182.42  E(vib)   ...       0.01
freq.    1193.71  E(vib)   ...       0.01
freq.    1195.74  E(vib)   ...       0.01
freq.    1204.90  E(vib)   ...       0.01
freq.    1205.71  E(vib)   ...       0.01
freq.    1215.91  E(vib)   ...       0.01
freq.    1236.37  E(vib)   ...       0.01
freq.    1249.32  E(vib)   ...       0.01
freq.    1254.44  E(vib)   ...       0.01
freq.    1299.34  E(vib)   ...       0.01
freq.    1314.19  E(vib)   ...       0.01
freq.    1327.91  E(vib)   ...       0.01
freq.    1330.74  E(vib)   ...       0.01
freq.    1361.64  E(vib)   ...       0.01
freq.    1362.28  E(vib)   ...       0.01
freq.    1382.06  E(vib)   ...       0.01
freq.    1393.65  E(vib)   ...       0.00
freq.    1402.32  E(vib)   ...       0.00
freq.    1434.75  E(vib)   ...       0.00
freq.    1465.08  E(vib)   ...       0.00
freq.    1466.04  E(vib)   ...       0.00
freq.    1470.20  E(vib)   ...       0.00
freq.    1474.17  E(vib)   ...       0.00
freq.    1474.71  E(vib)   ...       0.00
freq.    1483.84  E(vib)   ...       0.00
freq.    1489.35  E(vib)   ...       0.00
freq.    1498.76  E(vib)   ...       0.00
freq.    1506.57  E(vib)   ...       0.00
freq.    1535.48  E(vib)   ...       0.00
freq.    1553.96  E(vib)   ...       0.00
freq.    1598.79  E(vib)   ...       0.00
freq.    1645.84  E(vib)   ...       0.00
freq.    1664.53  E(vib)   ...       0.00
freq.    1687.40  E(vib)   ...       0.00
freq.    1797.25  E(vib)   ...       0.00
freq.    3038.34  E(vib)   ...       0.00
freq.    3073.62  E(vib)   ...       0.00
freq.    3110.12  E(vib)   ...       0.00
freq.    3117.75  E(vib)   ...       0.00
freq.    3152.06  E(vib)   ...       0.00
freq.    3157.94  E(vib)   ...       0.00
freq.    3167.08  E(vib)   ...       0.00
freq.    3195.33  E(vib)   ...       0.00
freq.    3196.17  E(vib)   ...       0.00
freq.    3199.71  E(vib)   ...       0.00
freq.    3206.37  E(vib)   ...       0.00
freq.    3211.67  E(vib)   ...       0.00
freq.    3231.11  E(vib)   ...       0.00
freq.    3232.43  E(vib)   ...       0.00
freq.    3232.57  E(vib)   ...       0.00
freq.    3239.16  E(vib)   ...       0.00
freq.    3249.36  E(vib)   ...       0.00

------------
INNER ENERGY
------------

The inner energy is: U= E(el) + E(ZPE) + E(vib) + E(rot) + E(trans)
    E(el)   - is the total energy from the electronic structure calculation
              = E(kin-el) + E(nuc-el) + E(el-el) + E(nuc-nuc)
    E(ZPE)  - the the zero temperature vibrational energy from the frequency calculation
    E(vib)  - the the finite temperature correction to E(ZPE) due to population
              of excited vibrational states
    E(rot)  - is the rotational thermal energy
    E(trans)- is the translational thermal energy

Summary of contributions to the inner energy U:
Electronic energy                ...  -1480.20819286 Eh

Rotational constants in cm-1:     0.007995     0.006200     0.005040

                             ****ORCA TERMINATED NORMALLY****
TOTAL RUN TIME: 0 days 4 hours 41 minutes 56 seconds 677 msec
