                         Program Version 5.0.4 -  RELEASE  -
|  1> %pal nprocs 24 end
|  2> %maxcore 3500
|  3> !PBE0 D3BJ def2-TZVP TightOpt TightSCF OPTTS FREQ
|  4> !CPCM(dmso)
|  5> %scf
|  6> MaxIter 800
|  7> end
|  8> %geom
|  9> MaxIter 800
| 10> MaxStep 0.2
| 11> inHess Read
| 12> InHessName "TS1_NO2-preopt.hess"
| 13> end
| 14> *xyz 0 1
| 15>   C      4.199505   -0.109143   -0.939087
| 16>   C      3.516686    0.085715   -2.164832
| 17>   C      2.257995    0.590661   -2.133782
| 18>   N      1.668776    0.939678   -0.961361
| 19>   C      2.232116    0.612654    0.266988
| 20>   C      3.593761    0.168986    0.245231
| 21>   C      0.235079    1.016053   -0.858639
| 22>   C     -0.217143    2.259601   -0.116785
| 23>   O      0.512875    3.152987    0.227740
| 24>   O     -1.530309    2.261433    0.013944
| 25>   C     -2.100369    3.387526    0.688821
| 26>   H      5.227013   -0.454113   -0.950068
| 27>   H      1.663458    0.763427   -3.021859
| 28>   H      1.942294    1.303577    1.054304
| 29>   H      4.112533    0.065314    1.187604
| 30>   H     -0.208365    1.071625   -1.851842
| 31>   H     -1.702846    3.456529    1.701363
| 32>   H     -3.170820    3.202086    0.711688
| 33>   C      0.913035   -0.674081    0.819911
| 34>   C     -0.122489   -0.382726   -0.238931
| 35>   C     -1.578752   -0.683661    0.014729
| 36>   C     -2.106831   -1.074043    1.235928
| 37>   C     -3.456544   -1.368737    1.388570
| 38>   C     -4.302165   -1.281493    0.298477
| 39>   C     -3.799389   -0.928127   -0.946325
| 40>   C     -2.447077   -0.646511   -1.092348
| 41>   O     -1.880367   -0.337058   -2.279283
| 42>   C     -2.698875   -0.306927   -3.434176
| 43>   N      1.514658   -1.995900    0.754560
| 44>   O      1.078520   -2.795627   -0.059449
| 45>   H      0.169472   -1.055851   -1.050218
| 46>   H     -1.474859   -1.173204    2.106504
| 47>   H     -3.833990   -1.666789    2.359148
| 48>   H     -5.358639   -1.500729    0.402578
| 49>   H     -4.461607   -0.883590   -1.800183
| 50>   H     -2.038844   -0.052174   -4.260680
| 51>   H     -3.481041    0.451515   -3.342989
| 52>   H     -3.155361   -1.283401   -3.617226
| 53>   O      2.489380   -2.201385    1.449771
| 54>   H     -1.882534    4.305147    0.142571
| 55>   H      3.983422   -0.136434   -3.113701
| 56>   N      0.623327   -0.254093    2.166918
| 57>   O      0.895332   -0.935453    3.135081
| 58>   O      0.118661    0.860291    2.240987
| 59>
| 60> **                         ****END OF INPUT****
 Total Charge           Charge          ....    0
 Multiplicity           Mult            ....    1
 Number of Electrons    NEL             ....  196
Dispersion correction           -0.058809066
FINAL SINGLE POINT ENERGY     -1347.717485185976
Dispersion correction            ... done
Dispersion correction           -0.058848274
FINAL SINGLE POINT ENERGY     -1347.717203332495
Dispersion correction            ... done
Dispersion correction           -0.058882937
FINAL SINGLE POINT ENERGY     -1347.717197459253
Dispersion correction            ... done
Dispersion correction           -0.058879606
FINAL SINGLE POINT ENERGY     -1347.717198990544
Dispersion correction            ... done
                    ***********************HURRAY********************

CARTESIAN COORDINATES (ANGSTROEM)
---------------------------------
  C      4.192319   -0.123105   -0.931493
  C      3.510919    0.072503   -2.163601
  C      2.259945    0.589832   -2.135791
  N      1.668552    0.952697   -0.965137
  C      2.212862    0.592822    0.274140
  C      3.585637    0.147469    0.249135
  C      0.235716    1.026046   -0.868216
  C     -0.221498    2.266775   -0.124272
  O      0.505038    3.162735    0.220872
  O     -1.534537    2.262304    0.012195
  C     -2.106670    3.384224    0.691852
  H      5.221099   -0.464722   -0.940934
  H      1.671296    0.771152   -3.026323
  H      1.957929    1.314419    1.047996
  H      4.101959    0.039808    1.192387
  H     -0.207337    1.081262   -1.861608
  H     -1.705296    3.453024    1.702924
  H     -3.176240    3.194276    0.718989
  C      0.934141   -0.644842    0.804826
  C     -0.118567   -0.371911   -0.247228
  C     -1.570867   -0.682804    0.013169
  C     -2.096300   -1.076016    1.234711
  C     -3.444992   -1.374798    1.388947
  C     -4.292652   -1.288723    0.300511
  C     -3.792693   -0.932794   -0.944639
  C     -2.441443   -0.647634   -1.092602
  O     -1.877862   -0.335424   -2.280062
  C     -2.699168   -0.301159   -3.432777
  N      1.516708   -1.987448    0.756515
  O      1.050565   -2.797499   -0.026224
  H      0.176397   -1.045243   -1.057602
  H     -1.464805   -1.175724    2.105424
  H     -3.819825   -1.674995    2.359847
  H     -5.348384   -1.510696    0.406145
  H     -4.456278   -0.888753   -1.797440
  H     -2.041301   -0.042614   -4.259822
  H     -3.481531    0.456477   -3.336628
  H     -3.155616   -1.277058   -3.618890
  O      2.497937   -2.186268    1.441017
  H     -1.895182    4.304197    0.147045
  H      3.979531   -0.153890   -3.110477
  N      0.619205   -0.241322    2.165540
  O      0.866795   -0.945410    3.120937
  O      0.123175    0.872384    2.246293

 Multiplicity           Mult            ....    1
 Number of Electrons    NEL             ....  196
 Basis Dimension        Dim             ....  939

ORBITAL ENERGIES
----------------

  NO   OCC          E(Eh)            E(eV)
   0   2.0000     -19.266810      -524.2765
   1   2.0000     -19.255340      -523.9644
   2   2.0000     -19.254839      -523.9508
   3   2.0000     -19.254234      -523.9343
   4   2.0000     -19.251323      -523.8551
   5   2.0000     -19.249698      -523.8109
   6   2.0000     -19.207139      -522.6528
   7   2.0000     -14.638325      -398.3291
   8   2.0000     -14.632894      -398.1813
   9   2.0000     -14.458520      -393.4363
  10   2.0000     -10.365837      -282.0688
  11   2.0000     -10.344465      -281.4872
  12   2.0000     -10.310642      -280.5668
  13   2.0000     -10.298147      -280.2268
  14   2.0000     -10.293854      -280.1100
  15   2.0000     -10.283665      -279.8328
  16   2.0000     -10.279753      -279.7263
  17   2.0000     -10.272080      -279.5175
  18   2.0000     -10.268588      -279.4225
  19   2.0000     -10.250466      -278.9294
  20   2.0000     -10.249629      -278.9066
  21   2.0000     -10.239793      -278.6389
  22   2.0000     -10.234083      -278.4835
  23   2.0000     -10.231742      -278.4199
  24   2.0000     -10.230404      -278.3834
  25   2.0000     -10.227118      -278.2940
  26   2.0000     -10.222789      -278.1762
  27   2.0000      -1.296596       -35.2822
  28   2.0000      -1.281092       -34.8603
  29   2.0000      -1.158884       -31.5348
  30   2.0000      -1.112631       -30.2762
  31   2.0000      -1.111831       -30.2545
  32   2.0000      -1.104056       -30.0429
  33   2.0000      -1.068512       -29.0757
  34   2.0000      -1.047658       -28.5082
  35   2.0000      -0.921939       -25.0872
  36   2.0000      -0.890862       -24.2416
  37   2.0000      -0.873490       -23.7689
  38   2.0000      -0.824599       -22.4385
  39   2.0000      -0.817705       -22.2509
  40   2.0000      -0.790875       -21.5208
  41   2.0000      -0.780905       -21.2495
  42   2.0000      -0.758272       -20.6336
  43   2.0000      -0.751830       -20.4583
  44   2.0000      -0.726881       -19.7794
  45   2.0000      -0.711770       -19.3682
  46   2.0000      -0.688484       -18.7346
  47   2.0000      -0.664776       -18.0895
  48   2.0000      -0.640352       -17.4249
  49   2.0000      -0.624344       -16.9893
  50   2.0000      -0.617293       -16.7974
  51   2.0000      -0.604992       -16.4627
  52   2.0000      -0.600476       -16.3398
  53   2.0000      -0.587299       -15.9812
  54   2.0000      -0.572874       -15.5887
  55   2.0000      -0.563592       -15.3361
  56   2.0000      -0.559252       -15.2180
  57   2.0000      -0.558557       -15.1991
  58   2.0000      -0.551690       -15.0122
  59   2.0000      -0.545041       -14.8313
  60   2.0000      -0.532362       -14.4863
  61   2.0000      -0.519509       -14.1365
  62   2.0000      -0.514756       -14.0072
  63   2.0000      -0.512514       -13.9462
  64   2.0000      -0.508266       -13.8306
  65   2.0000      -0.495332       -13.4787
  66   2.0000      -0.491014       -13.3612
  67   2.0000      -0.482082       -13.1181
  68   2.0000      -0.474915       -12.9231
  69   2.0000      -0.466800       -12.7023
  70   2.0000      -0.459924       -12.5152
  71   2.0000      -0.456529       -12.4228
  72   2.0000      -0.449356       -12.2276
  73   2.0000      -0.437256       -11.8983
  74   2.0000      -0.427717       -11.6388
  75   2.0000      -0.424453       -11.5499
  76   2.0000      -0.406705       -11.0670
  77   2.0000      -0.397726       -10.8227
  78   2.0000      -0.393051       -10.6955
  79   2.0000      -0.385587       -10.4923
  80   2.0000      -0.381993       -10.3946
  81   2.0000      -0.379651       -10.3308
  82   2.0000      -0.377032       -10.2596
  83   2.0000      -0.363435        -9.8896
  84   2.0000      -0.357637        -9.7318
  85   2.0000      -0.353629        -9.6227
  86   2.0000      -0.351392        -9.5619
  87   2.0000      -0.345736        -9.4079
  88   2.0000      -0.343952        -9.3594
  89   2.0000      -0.335253        -9.1227
  90   2.0000      -0.334801        -9.1104
  91   2.0000      -0.331780        -9.0282
  92   2.0000      -0.320843        -8.7306
  93   2.0000      -0.319260        -8.6875
  94   2.0000      -0.307657        -8.3718
  95   2.0000      -0.272487        -7.4147
  96   2.0000      -0.242812        -6.6073
  97   2.0000      -0.226748        -6.1701
  98   0.0000      -0.090589        -2.4651
  99   0.0000      -0.083455        -2.2709
 100   0.0000      -0.041892        -1.1399
 101   0.0000      -0.018508        -0.5036
 102   0.0000      -0.000966        -0.0263

MULLIKEN ATOMIC CHARGES
-----------------------
   0 C :   -0.094109
   1 C :   -0.197034
   2 C :   -0.089791
   3 N :    0.059586
   4 C :    0.004970
   5 C :   -0.247769
   6 C :   -0.004670
   7 C :    0.251527
   8 O :   -0.377851
   9 O :   -0.202388
  10 C :   -0.268506
  11 H :    0.165275
  12 H :    0.184049
  13 H :    0.170706
  14 H :    0.160732
  15 H :    0.196294
  16 H :    0.156419
  17 H :    0.163402
  18 C :   -0.038291
  19 C :    0.013412
  20 C :   -0.029349
  21 C :   -0.187089
  22 C :   -0.212621
  23 C :   -0.143956
  24 C :   -0.306869
  25 C :    0.289404
  26 O :   -0.264474
  27 C :   -0.290931
  28 N :    0.540976
  29 O :   -0.368580
  30 H :    0.139143
  31 H :    0.128984
  32 H :    0.149443
  33 H :    0.152496
  34 H :    0.164111
  35 H :    0.164178
  36 H :    0.153135
  37 H :    0.155981
  38 O :   -0.323131
  39 H :    0.156569
  40 H :    0.169708
  41 N :    0.439209
  42 O :   -0.333295
  43 O :   -0.349009
Sum of atomic charges:   -0.0000000

LOEWDIN ATOMIC CHARGES
----------------------
   0 C :   -0.118238
   1 C :   -0.173132
   2 C :   -0.139513
   3 N :    0.282518
   4 C :   -0.154806
   5 C :   -0.143354
   6 C :   -0.171032
   7 C :   -0.490451
   8 O :    0.092462
   9 O :    0.286862
  10 C :   -0.298409
  11 H :    0.162437
  12 H :    0.167005
  13 H :    0.170454
  14 H :    0.159668
  15 H :    0.187892
  16 H :    0.120154
  17 H :    0.123519
  18 C :   -0.212402
  19 C :   -0.147669
  20 C :   -0.108204
  21 C :   -0.117655
  22 C :   -0.163304
  23 C :   -0.144568
  24 C :   -0.139198
  25 C :   -0.227999
  26 O :    0.253830
  27 C :   -0.322230
  28 N :   -0.052927
  29 O :   -0.038016
  30 H :    0.204451
  31 H :    0.156534
  32 H :    0.153352
  33 H :    0.155107
  34 H :    0.161482
  35 H :    0.122786
  36 H :    0.118312
  37 H :    0.119321
  38 O :   -0.009863
  39 H :    0.120613
  40 H :    0.160048
  41 N :   -0.064349
  42 O :   -0.026955
  43 O :   -0.014534

  Mayer bond orders larger than 0.100000
B(  0-C ,  1-C ) :   1.1892 B(  0-C ,  5-C ) :   1.7036 B(  0-C , 11-H ) :   0.9560
B(  1-C ,  2-C ) :   1.6218 B(  1-C , 40-H ) :   0.9605 B(  2-C ,  3-N ) :   1.2152
B(  2-C , 12-H ) :   0.9393 B(  3-N ,  4-C ) :   1.1030 B(  3-N ,  6-C ) :   0.9083
B(  4-C ,  5-C ) :   1.1280 B(  4-C , 13-H ) :   0.9139 B(  4-C , 18-C ) :   0.5737
B(  5-C , 14-H ) :   0.9551 B(  6-C ,  7-C ) :   0.9629 B(  6-C , 15-H ) :   0.9039
B(  6-C , 19-C ) :   0.9216 B(  7-C ,  8-O ) :   1.9979 B(  7-C ,  9-O ) :   1.2650
B(  9-O , 10-C ) :   0.8899 B( 10-C , 16-H ) :   0.9661 B( 10-C , 17-H ) :   0.9639
B( 10-C , 39-H ) :   0.9652 B( 18-C , 19-C ) :   0.9421 B( 18-C , 28-N ) :   0.9566
B( 18-C , 38-O ) :   0.1022 B( 18-C , 41-N ) :   0.9470 B( 18-C , 43-O ) :   0.1041
B( 19-C , 20-C ) :   0.9356 B( 19-C , 30-H ) :   0.9019 B( 20-C , 21-C ) :   1.3592
B( 20-C , 25-C ) :   1.2900 B( 21-C , 22-C ) :   1.4099 B( 21-C , 31-H ) :   0.9731
B( 22-C , 23-C ) :   1.4071 B( 22-C , 32-H ) :   0.9799 B( 23-C , 24-C ) :   1.3854
B( 23-C , 33-H ) :   0.9679 B( 24-C , 25-C ) :   1.3746 B( 24-C , 34-H ) :   0.9634
B( 25-C , 26-O ) :   1.0985 B( 26-O , 27-C ) :   0.9319 B( 27-C , 35-H ) :   0.9649
B( 27-C , 36-H ) :   0.9611 B( 27-C , 37-H ) :   0.9613 B( 28-N , 29-O ) :   1.5234
B( 28-N , 38-O ) :   1.5708 B( 29-O , 38-O ) :   0.1970 B( 41-N , 42-O ) :   1.5785
B( 41-N , 43-O ) :   1.4796 B( 42-O , 43-O ) :   0.1786

Dispersion correction           -0.058879720
FINAL SINGLE POINT ENERGY     -1347.717199260381

DIPOLE MOMENT
-------------
                                X             Y             Z
Electronic contribution:     11.02001      -4.78606       9.03708
Nuclear contribution   :    -12.55501       6.12028     -12.67474
                        -----------------------------------------
Total Dipole Moment    :     -1.53500       1.33422      -3.63766
                        -----------------------------------------
Magnitude (a.u.)       :      4.16760
Magnitude (Debye)      :     10.59321

Dispersion correction in the Hessian             ... done   (      0.7 sec)

VIBRATIONAL FREQUENCIES
-----------------------

Scaling factor for frequencies =  1.000000000  (already applied!)

   0:         0.00 cm**-1
   1:         0.00 cm**-1
   2:         0.00 cm**-1
   3:         0.00 cm**-1
   4:         0.00 cm**-1
   5:         0.00 cm**-1
   6:      -296.54 cm**-1 ***imaginary mode***
   7:        17.30 cm**-1
   8:        44.82 cm**-1
   9:        60.15 cm**-1
  10:        64.14 cm**-1
  11:        73.69 cm**-1
  12:        83.32 cm**-1
  13:        88.99 cm**-1
  14:        97.73 cm**-1
  15:       103.78 cm**-1
  16:       108.85 cm**-1
  17:       139.66 cm**-1
  18:       148.08 cm**-1
  19:       155.66 cm**-1
  20:       164.27 cm**-1
  21:       180.05 cm**-1
  22:       195.48 cm**-1
  23:       210.15 cm**-1
  24:       230.84 cm**-1
  25:       248.49 cm**-1
  26:       262.23 cm**-1
  27:       282.37 cm**-1
  28:       296.23 cm**-1
  29:       308.58 cm**-1
  30:       320.81 cm**-1
  31:       342.43 cm**-1
  32:       365.66 cm**-1
  33:       414.56 cm**-1
  34:       430.51 cm**-1
  35:       457.15 cm**-1
  36:       466.25 cm**-1
  37:       488.97 cm**-1
  38:       539.41 cm**-1
  39:       550.47 cm**-1
  40:       582.45 cm**-1
  41:       585.44 cm**-1
  42:       603.61 cm**-1
  43:       634.64 cm**-1
  44:       648.85 cm**-1
  45:       652.48 cm**-1
  46:       685.44 cm**-1
  47:       709.22 cm**-1
  48:       748.06 cm**-1
  49:       756.59 cm**-1
  50:       765.21 cm**-1
  51:       768.62 cm**-1
  52:       783.41 cm**-1
  53:       805.98 cm**-1
  54:       822.01 cm**-1
  55:       837.53 cm**-1
  56:       843.77 cm**-1
  57:       858.06 cm**-1
  58:       873.40 cm**-1
  59:       879.07 cm**-1
  60:       924.58 cm**-1
  61:       942.50 cm**-1
  62:       948.01 cm**-1
  63:       968.78 cm**-1
  64:       985.53 cm**-1
  65:      1008.23 cm**-1
  66:      1015.32 cm**-1
  67:      1015.86 cm**-1
  68:      1044.90 cm**-1
  69:      1056.29 cm**-1
  70:      1073.54 cm**-1
  71:      1084.14 cm**-1
  72:      1092.42 cm**-1
  73:      1094.88 cm**-1
  74:      1146.02 cm**-1
  75:      1165.91 cm**-1
  76:      1170.82 cm**-1
  77:      1171.10 cm**-1
  78:      1178.00 cm**-1
  79:      1183.95 cm**-1
  80:      1196.71 cm**-1
  81:      1204.87 cm**-1
  82:      1206.87 cm**-1
  83:      1209.61 cm**-1
  84:      1234.60 cm**-1
  85:      1244.39 cm**-1
  86:      1272.42 cm**-1
  87:      1278.56 cm**-1
  88:      1286.05 cm**-1
  89:      1302.89 cm**-1
  90:      1331.14 cm**-1
  91:      1344.11 cm**-1
  92:      1356.08 cm**-1
  93:      1371.98 cm**-1
  94:      1375.37 cm**-1
  95:      1392.52 cm**-1
  96:      1414.40 cm**-1
  97:      1441.05 cm**-1
  98:      1464.32 cm**-1
  99:      1466.32 cm**-1
 100:      1469.86 cm**-1
 101:      1473.53 cm**-1
 102:      1473.78 cm**-1
 103:      1480.89 cm**-1
 104:      1484.11 cm**-1
 105:      1499.05 cm**-1
 106:      1508.72 cm**-1
 107:      1540.10 cm**-1
 108:      1592.10 cm**-1
 109:      1601.52 cm**-1
 110:      1635.89 cm**-1
 111:      1647.65 cm**-1
 112:      1666.41 cm**-1
 113:      1691.05 cm**-1
 114:      1798.14 cm**-1
 115:      3040.33 cm**-1
 116:      3073.79 cm**-1
 117:      3078.52 cm**-1
 118:      3113.44 cm**-1
 119:      3133.07 cm**-1
 120:      3148.31 cm**-1
 121:      3158.26 cm**-1
 122:      3167.54 cm**-1
 123:      3191.84 cm**-1
 124:      3196.99 cm**-1
 125:      3204.73 cm**-1
 126:      3213.27 cm**-1
 127:      3225.76 cm**-1
 128:      3233.49 cm**-1
 129:      3241.64 cm**-1
 130:      3246.52 cm**-1
 131:      3247.43 cm**-1

IR SPECTRUM
-----------

 Mode   freq       eps      Int      T**2         TX        TY        TZ
       cm**-1   L/(mol*cm) km/mol    a.u.
----------------------------------------------------------------------------
  7:     17.30   0.000010    0.05  0.000179  ( 0.009367  0.007478 -0.005903)
  8:     44.82   0.000351    1.77  0.002443  (-0.021196  0.044623  0.001718)
  9:     60.15   0.000453    2.29  0.002350  ( 0.015385  0.019031 -0.041852)
 10:     64.14   0.000632    3.19  0.003075  (-0.032128 -0.007191  0.044619)
 11:     73.69   0.000237    1.20  0.001003  (-0.029513 -0.003684 -0.010886)
 12:     83.32   0.000485    2.45  0.001815  (-0.006442  0.032362 -0.026946)
 13:     88.99   0.000876    4.43  0.003071  (-0.014982  0.053030 -0.005859)
 14:     97.73   0.000479    2.42  0.001529  (-0.031864  0.022568  0.002066)
 15:    103.78   0.001115    5.64  0.003354  (-0.026742  0.018068  0.048090)
 16:    108.85   0.001716    8.67  0.004920  (-0.032487 -0.029588  0.054673)
 17:    139.66   0.001875    9.47  0.004189  ( 0.042787  0.046331 -0.014533)
 18:    148.08   0.000161    0.82  0.000340  ( 0.015895  0.004547  0.008187)
 19:    155.66   0.000208    1.05  0.000416  ( 0.020014  0.000803 -0.003886)
 20:    164.27   0.001910    9.65  0.003629  (-0.058173 -0.004566  0.014976)
 21:    180.05   0.001113    5.62  0.001929  ( 0.025253  0.025542 -0.025277)
 22:    195.48   0.000686    3.47  0.001095  (-0.003906 -0.014329  0.029564)
 23:    210.15   0.000328    1.66  0.000487  ( 0.015338 -0.003956 -0.015364)
 24:    230.84   0.003862   19.52  0.005221  ( 0.027913  0.037693 -0.054965)
 25:    248.49   0.001386    7.01  0.001741  (-0.012196 -0.012094  0.038025)
 26:    262.23   0.002135   10.79  0.002541  ( 0.025603 -0.024887  0.035582)
 27:    282.37   0.001740    8.79  0.001922  (-0.043803  0.001936 -0.000110)
 28:    296.23   0.002213   11.18  0.002331  ( 0.046529 -0.000900 -0.012851)
 29:    308.58   0.000146    0.74  0.000148  (-0.008281  0.006194 -0.006376)
 30:    320.81   0.001501    7.59  0.001460  ( 0.003198  0.021372 -0.031514)
 31:    342.43   0.000010    0.05  0.000009  ( 0.001629 -0.001946  0.001637)
 32:    365.66   0.002769   13.99  0.002363  (-0.034861  0.030379  0.014986)
 33:    414.56   0.006210   31.38  0.004675  ( 0.044886  0.000578 -0.051572)
 34:    430.51   0.000302    1.52  0.000219  (-0.010881 -0.004133 -0.009119)
 35:    457.15   0.001788    9.04  0.001221  ( 0.022942 -0.024504 -0.009689)
 36:    466.25   0.000218    1.10  0.000146  (-0.003760 -0.006141 -0.009701)
 37:    488.97   0.001439    7.27  0.000918  (-0.016805 -0.012019  0.022164)
 38:    539.41   0.005188   26.22  0.003002  ( 0.011110  0.026930 -0.046400)
 39:    550.47   0.002328   11.77  0.001320  (-0.018770  0.030972  0.002873)
 40:    582.45   0.004810   24.31  0.002577  (-0.049114 -0.011478  0.005775)
 41:    585.44   0.007664   38.73  0.004085  ( 0.010808  0.020844 -0.059445)
 42:    603.61   0.005135   25.95  0.002655  ( 0.026861 -0.029053  0.033005)
 43:    634.64   0.022589  114.15  0.011107  (-0.048412 -0.086336  0.036188)
 44:    648.85   0.002834   14.32  0.001363  (-0.009075 -0.018722 -0.030497)
 45:    652.48   0.000055    0.28  0.000026  ( 0.005013 -0.001113  0.000277)
 46:    685.44   0.002698   13.64  0.001229  ( 0.009258 -0.032597  0.008961)
 47:    709.22   0.026737  135.12  0.011765  ( 0.042018  0.082655 -0.056278)
 48:    748.06   0.015493   78.29  0.006463  ( 0.043563  0.066875 -0.009637)
 49:    756.59   0.029605  149.61  0.012211  ( 0.025191  0.107477  0.005015)
 50:    765.21   0.014448   73.02  0.005892  (-0.007390  0.073283 -0.021617)
 51:    768.62   0.011253   56.87  0.004569  (-0.034411 -0.003505  0.058071)
 52:    783.41   0.006121   30.93  0.002438  (-0.026944  0.025363  0.032697)
 53:    805.98   0.002939   14.85  0.001138  (-0.025298 -0.008327  0.020703)
 54:    822.01   0.006496   32.83  0.002466  (-0.035231 -0.028323  0.020562)
 55:    837.53   0.002379   12.02  0.000886  (-0.012671  0.026942 -0.000182)
 56:    843.77   0.015846   80.08  0.005861  (-0.018489  0.059071  0.045050)
 57:    858.06   0.007543   38.12  0.002743  ( 0.049871  0.009515 -0.012869)
 58:    873.40   0.002693   13.61  0.000962  ( 0.008541 -0.002586  0.029711)
 59:    879.07   0.010589   53.51  0.003759  (-0.003671  0.040948 -0.045485)
 60:    924.58   0.005727   28.94  0.001933  ( 0.031274 -0.019114  0.024281)
 61:    942.50   0.007149   36.13  0.002367  (-0.032256  0.006508  0.035836)
 62:    948.01   0.000851    4.30  0.000280  (-0.000391 -0.014713  0.007973)
 63:    968.78   0.000729    3.69  0.000235  ( 0.015124 -0.001747 -0.001767)
 64:    985.53   0.000105    0.53  0.000033  ( 0.001278  0.005530 -0.001031)
 65:   1008.23   0.007009   35.42  0.002169  (-0.015711 -0.025691  0.035532)
 66:   1015.32   0.002354   11.90  0.000724  ( 0.012304 -0.023878  0.001427)
 67:   1015.86   0.002714   13.71  0.000834  ( 0.009342 -0.023749  0.013504)
 68:   1044.90   0.012466   63.00  0.003723  (-0.026824  0.045307  0.030835)
 69:   1056.29   0.010706   54.10  0.003163  (-0.025699  0.044033  0.023739)
 70:   1073.54   0.012187   61.59  0.003543  ( 0.029656  0.010497  0.050527)
 71:   1084.14   0.006906   34.90  0.001988  ( 0.021388  0.012875  0.036940)
 72:   1092.42   0.001273    6.44  0.000364  (-0.012526  0.001263 -0.014327)
 73:   1094.88   0.006197   31.31  0.001766  (-0.039719 -0.012586  0.005488)
 74:   1146.02   0.023653  119.53  0.006441  ( 0.011423 -0.012049  0.078518)
 75:   1165.91   0.008579   43.35  0.002296  ( 0.018367  0.026490 -0.035454)
 76:   1170.82   0.000056    0.28  0.000015  ( 0.001776 -0.002501  0.002351)
 77:   1171.10   0.000281    1.42  0.000075  ( 0.003587 -0.007862 -0.000431)
 78:   1178.00   0.002444   12.35  0.000647  ( 0.025071  0.001488 -0.004080)
 79:   1183.95   0.000984    4.98  0.000259  (-0.014682 -0.004773  0.004600)
 80:   1196.71   0.004847   24.50  0.001264  ( 0.018719  0.030076 -0.003014)
 81:   1204.87   0.007110   35.93  0.001842  (-0.041149  0.006607 -0.010229)
 82:   1206.87   0.004904   24.78  0.001268  ( 0.033830 -0.010782 -0.002679)
 83:   1209.61   0.001556    7.86  0.000401  (-0.017001 -0.009081  0.005464)
 84:   1234.60   0.013864   70.06  0.003504  (-0.043412  0.027587 -0.029305)
 85:   1244.39   0.017377   87.81  0.004358  (-0.012171  0.037593 -0.052880)
 86:   1272.42   0.007529   38.05  0.001846  ( 0.040737 -0.013638  0.000968)
 87:   1278.56   0.114354  577.90  0.027911  (-0.133366  0.064205  0.077473)
 88:   1286.05   0.009389   47.45  0.002278  ( 0.034005 -0.022287  0.025002)
 89:   1302.89   0.069587  351.66  0.016667  ( 0.021732  0.024183 -0.124940)
 90:   1331.14   0.043350  219.07  0.010163  ( 0.043746 -0.057292 -0.070475)
 91:   1344.11   0.114800  580.15  0.026653  (-0.051629  0.127809  0.087478)
 92:   1356.08   0.003729   18.85  0.000858  (-0.017852 -0.018696 -0.013784)
 93:   1371.98   0.006978   35.26  0.001587  ( 0.029182 -0.012454 -0.024092)
 94:   1375.37   0.025523  128.98  0.005791  ( 0.060248 -0.044663  0.012900)
 95:   1392.52   0.004818   24.35  0.001080  (-0.005471 -0.009893 -0.030852)
 96:   1414.40   0.097665  493.56  0.021548  ( 0.061651  0.052877 -0.122275)
 97:   1441.05   0.042806  216.32  0.009270  (-0.039415 -0.043310  0.076423)
 98:   1464.32   0.002609   13.18  0.000556  ( 0.005627  0.006304 -0.022014)
 99:   1466.32   0.003152   15.93  0.000671  (-0.000371  0.011145 -0.023375)
100:   1469.86   0.013487   68.16  0.002863  (-0.030585  0.036317  0.024678)
101:   1473.53   0.003663   18.51  0.000776  ( 0.027272  0.004325  0.003636)
102:   1473.78   0.002965   14.99  0.000628  (-0.005039  0.023253  0.007860)
103:   1480.89   0.001322    6.68  0.000279  (-0.002145  0.007894 -0.014550)
104:   1484.11   0.004853   24.53  0.001020  (-0.013356 -0.009444  0.027439)
105:   1499.05   0.012416   62.74  0.002585  (-0.003796 -0.009673  0.049766)
106:   1508.72   0.004810   24.31  0.000995  ( 0.012222 -0.005691 -0.028517)
107:   1540.10   0.028488  143.97  0.005772  (-0.024568 -0.018726  0.069413)
108:   1592.10   0.071729  362.49  0.014059  (-0.004938 -0.099224  0.064728)
109:   1601.52   0.048932  247.28  0.009535  (-0.043564 -0.081279 -0.032101)
110:   1635.89   0.140791  711.50  0.026857  ( 0.098453 -0.042753  0.123841)
111:   1647.65   0.006495   32.82  0.001230  (-0.021905  0.002791 -0.027250)
112:   1666.41   0.010587   53.50  0.001983  ( 0.011254  0.009080 -0.042113)
113:   1691.05   0.036396  183.93  0.006716  ( 0.076256 -0.023153 -0.019113)
114:   1798.14   0.112590  568.98  0.019540  ( 0.109424  0.085226  0.017401)
115:   3040.33   0.012493   63.14  0.001282  ( 0.019173 -0.001240  0.030219)
116:   3073.79   0.005789   29.25  0.000588  (-0.011471  0.019111  0.009534)
117:   3078.52   0.001134    5.73  0.000115  ( 0.001617  0.009044  0.005523)
118:   3113.44   0.006952   35.13  0.000697  (-0.004846  0.025583  0.004343)
119:   3133.07   0.001241    6.27  0.000124  ( 0.000638  0.003723 -0.010458)
120:   3148.31   0.003892   19.67  0.000386  (-0.007276 -0.013474 -0.012300)
121:   3158.26   0.003513   17.76  0.000347  ( 0.002322 -0.009589  0.015806)
122:   3167.54   0.003520   17.79  0.000347  ( 0.011971  0.004186 -0.013635)
123:   3191.84   0.001970    9.96  0.000193  ( 0.013431  0.003445  0.000625)
124:   3196.99   0.000559    2.82  0.000055  (-0.007194 -0.000866 -0.001428)
125:   3204.73   0.001555    7.86  0.000151  (-0.011943  0.002442 -0.001690)
126:   3213.27   0.002718   13.74  0.000264  (-0.012384 -0.004219  0.009633)
127:   3225.76   0.000361    1.83  0.000035  ( 0.005794  0.000574  0.001028)
128:   3233.49   0.000485    2.45  0.000047  ( 0.004079 -0.000474  0.005468)
129:   3241.64   0.000075    0.38  0.000007  (-0.001563 -0.001792  0.001253)
130:   3246.52   0.001144    5.78  0.000110  ( 0.001375 -0.003366  0.009835)
131:   3247.43   0.000040    0.20  0.000004  (-0.000633  0.000835 -0.001661)

--------------------------
THERMOCHEMISTRY AT 298.15K
--------------------------

Temperature         ... 298.15 K
Pressure            ... 1.00 atm
Total Mass          ... 375.34 AMU

Throughout the following assumptions are being made:
  (1) The electronic state is orbitally nondegenerate
  (2) There are no thermally accessible electronically excited states
  (3) Hindered rotations indicated by low frequency modes are not
      treated as such but are treated as vibrations and this may
      cause some error
  (4) All equations used are the standard statistical mechanics
      equations for an ideal gas
  (5) All vibrations are strictly harmonic

freq.      17.30  E(vib)   ...       0.57
freq.      44.82  E(vib)   ...       0.53
freq.      60.15  E(vib)   ...       0.51
freq.      64.14  E(vib)   ...       0.51
freq.      73.69  E(vib)   ...       0.49
freq.      83.32  E(vib)   ...       0.48
freq.      88.99  E(vib)   ...       0.47
freq.      97.73  E(vib)   ...       0.46
freq.     103.78  E(vib)   ...       0.46
freq.     108.85  E(vib)   ...       0.45
freq.     139.66  E(vib)   ...       0.42
freq.     148.08  E(vib)   ...       0.41
freq.     155.66  E(vib)   ...       0.40
freq.     164.27  E(vib)   ...       0.39
freq.     180.05  E(vib)   ...       0.37
freq.     195.48  E(vib)   ...       0.36
freq.     210.15  E(vib)   ...       0.34
freq.     230.84  E(vib)   ...       0.32
freq.     248.49  E(vib)   ...       0.31
freq.     262.23  E(vib)   ...       0.29
freq.     282.37  E(vib)   ...       0.28
freq.     296.23  E(vib)   ...       0.27
freq.     308.58  E(vib)   ...       0.26
freq.     320.81  E(vib)   ...       0.25
freq.     342.43  E(vib)   ...       0.23
freq.     365.66  E(vib)   ...       0.22
freq.     414.56  E(vib)   ...       0.19
freq.     430.51  E(vib)   ...       0.18
freq.     457.15  E(vib)   ...       0.16
freq.     466.25  E(vib)   ...       0.16
freq.     488.97  E(vib)   ...       0.15
freq.     539.41  E(vib)   ...       0.12
freq.     550.47  E(vib)   ...       0.12
freq.     582.45  E(vib)   ...       0.11
freq.     585.44  E(vib)   ...       0.11
freq.     603.61  E(vib)   ...       0.10
freq.     634.64  E(vib)   ...       0.09
freq.     648.85  E(vib)   ...       0.08
freq.     652.48  E(vib)   ...       0.08
freq.     685.44  E(vib)   ...       0.07
freq.     709.22  E(vib)   ...       0.07
freq.     748.06  E(vib)   ...       0.06
freq.     756.59  E(vib)   ...       0.06
freq.     765.21  E(vib)   ...       0.06
freq.     768.62  E(vib)   ...       0.06
freq.     783.41  E(vib)   ...       0.05
freq.     805.98  E(vib)   ...       0.05
freq.     822.01  E(vib)   ...       0.05
freq.     837.53  E(vib)   ...       0.04
freq.     843.77  E(vib)   ...       0.04
freq.     858.06  E(vib)   ...       0.04
freq.     873.40  E(vib)   ...       0.04
freq.     879.07  E(vib)   ...       0.04
freq.     924.58  E(vib)   ...       0.03
freq.     942.50  E(vib)   ...       0.03
freq.     948.01  E(vib)   ...       0.03
freq.     968.78  E(vib)   ...       0.03
freq.     985.53  E(vib)   ...       0.02
freq.    1008.23  E(vib)   ...       0.02
freq.    1015.32  E(vib)   ...       0.02
freq.    1015.86  E(vib)   ...       0.02
freq.    1044.90  E(vib)   ...       0.02
freq.    1056.29  E(vib)   ...       0.02
freq.    1073.54  E(vib)   ...       0.02
freq.    1084.14  E(vib)   ...       0.02
freq.    1092.42  E(vib)   ...       0.02
freq.    1094.88  E(vib)   ...       0.02
freq.    1146.02  E(vib)   ...       0.01
freq.    1165.91  E(vib)   ...       0.01
freq.    1170.82  E(vib)   ...       0.01
freq.    1171.10  E(vib)   ...       0.01
freq.    1178.00  E(vib)   ...       0.01
freq.    1183.95  E(vib)   ...       0.01
freq.    1196.71  E(vib)   ...       0.01
freq.    1204.87  E(vib)   ...       0.01
freq.    1206.87  E(vib)   ...       0.01
freq.    1209.61  E(vib)   ...       0.01
freq.    1234.60  E(vib)   ...       0.01
freq.    1244.39  E(vib)   ...       0.01
freq.    1272.42  E(vib)   ...       0.01
freq.    1278.56  E(vib)   ...       0.01
freq.    1286.05  E(vib)   ...       0.01
freq.    1302.89  E(vib)   ...       0.01
freq.    1331.14  E(vib)   ...       0.01
freq.    1344.11  E(vib)   ...       0.01
freq.    1356.08  E(vib)   ...       0.01
freq.    1371.98  E(vib)   ...       0.01
freq.    1375.37  E(vib)   ...       0.01
freq.    1392.52  E(vib)   ...       0.00
freq.    1414.40  E(vib)   ...       0.00
freq.    1441.05  E(vib)   ...       0.00
freq.    1464.32  E(vib)   ...       0.00
freq.    1466.32  E(vib)   ...       0.00
freq.    1469.86  E(vib)   ...       0.00
freq.    1473.53  E(vib)   ...       0.00
freq.    1473.78  E(vib)   ...       0.00
freq.    1480.89  E(vib)   ...       0.00
freq.    1484.11  E(vib)   ...       0.00
freq.    1499.05  E(vib)   ...       0.00
freq.    1508.72  E(vib)   ...       0.00
freq.    1540.10  E(vib)   ...       0.00
freq.    1592.10  E(vib)   ...       0.00
freq.    1601.52  E(vib)   ...       0.00
freq.    1635.89  E(vib)   ...       0.00
freq.    1647.65  E(vib)   ...       0.00
freq.    1666.41  E(vib)   ...       0.00
freq.    1691.05  E(vib)   ...       0.00
freq.    1798.14  E(vib)   ...       0.00
freq.    3040.33  E(vib)   ...       0.00
freq.    3073.79  E(vib)   ...       0.00
freq.    3078.52  E(vib)   ...       0.00
freq.    3113.44  E(vib)   ...       0.00
freq.    3133.07  E(vib)   ...       0.00
freq.    3148.31  E(vib)   ...       0.00
freq.    3158.26  E(vib)   ...       0.00
freq.    3167.54  E(vib)   ...       0.00
freq.    3191.84  E(vib)   ...       0.00
freq.    3196.99  E(vib)   ...       0.00
freq.    3204.73  E(vib)   ...       0.00
freq.    3213.27  E(vib)   ...       0.00
freq.    3225.76  E(vib)   ...       0.00
freq.    3233.49  E(vib)   ...       0.00
freq.    3241.64  E(vib)   ...       0.00
freq.    3246.52  E(vib)   ...       0.00
freq.    3247.43  E(vib)   ...       0.00

------------
INNER ENERGY
------------

The inner energy is: U= E(el) + E(ZPE) + E(vib) + E(rot) + E(trans)
    E(el)   - is the total energy from the electronic structure calculation
              = E(kin-el) + E(nuc-el) + E(el-el) + E(nuc-nuc)
    E(ZPE)  - the the zero temperature vibrational energy from the frequency calculation
    E(vib)  - the the finite temperature correction to E(ZPE) due to population
              of excited vibrational states
    E(rot)  - is the rotational thermal energy
    E(trans)- is the translational thermal energy

Summary of contributions to the inner energy U:
Electronic energy                ...  -1347.71719926 Eh
Zero point energy                ...      0.33700416 Eh     211.47 kcal/mol
Thermal vibrational correction   ...      0.02062113 Eh      12.94 kcal/mol
Thermal rotational correction    ...      0.00141627 Eh       0.89 kcal/mol

Rotational constants in cm-1:     0.009484     0.006105     0.005722

                             ****ORCA TERMINATED NORMALLY****
TOTAL RUN TIME: 0 days 1 hours 7 minutes 58 seconds 257 msec
