                         Program Version 5.0.4 -  RELEASE  -
|  1> %pal nprocs 24 end
|  2> %maxcore 3500
|  3> !PBE0 D3BJ def2-TZVP TightOpt TightSCF OPTTS FREQ
|  4> !CPCM(dmso)
|  5> %scf
|  6> MaxIter 800
|  7> end
|  8> %geom
|  9> MaxIter 800
| 10> MaxStep 0.2
| 11> inHess Read
| 12> InHessName "TS1_N3-preopt.hess"
| 13> end
| 14> *xyz 0 1
| 15>   C      4.087042    1.038166    0.281797
| 16>   C      3.739627    1.953357   -0.728541
| 17>   C      2.426793    2.079042   -1.065673
| 18>   N      1.472484    1.387029   -0.409279
| 19>   C      1.765365    0.499822    0.584884
| 20>   C      3.115472    0.340874    0.948599
| 21>   C      0.112242    1.328448   -0.877587
| 22>   C     -0.771938    2.206833   -0.005761
| 23>   O     -0.385590    2.831574    0.947825
| 24>   O     -1.989219    2.275594   -0.513828
| 25>   C     -2.928588    3.086553    0.199038
| 26>   H      5.126721    0.916028    0.562102
| 27>   H      2.075951    2.719715   -1.863760
| 28>   H      0.972222    0.295269    1.292388
| 29>   H      3.356112   -0.316939    1.772748
| 30>   H      0.080343    1.788490   -1.866032
| 31>   H     -3.051541    2.711120    1.214863
| 32>   H     -3.861721    3.005087   -0.351589
| 33>   C      0.771077   -1.109772   -0.468376
| 34>   C     -0.280838   -0.211983   -1.065515
| 35>   C     -1.680475   -0.603489   -0.675417
| 36>   C     -2.525879   -1.125939   -1.641316
| 37>   C     -3.816685   -1.538408   -1.334145
| 38>   C     -4.268915   -1.426335   -0.031115
| 39>   C     -3.444894   -0.903936    0.958391
| 40>   C     -2.158459   -0.493068    0.636789
| 41>   O     -1.301958    0.050618    1.526010
| 42>   C     -1.717809    0.206649    2.868831
| 43>   N      1.824605   -1.448145   -1.286855
| 44>   O      2.059066   -0.727289   -2.277019
| 45>   H     -0.210716   -0.352122   -2.143361
| 46>   H     -2.160107   -1.211629   -2.659200
| 47>   H     -4.457321   -1.943320   -2.108167
| 48>   H     -5.272264   -1.743702    0.229524
| 49>   H     -3.810468   -0.817918    1.972772
| 50>   H     -0.886509    0.681152    3.386112
| 51>   H     -1.930271   -0.763177    3.326403
| 52>   H     -2.602379    0.845365    2.936543
| 53>   O      2.579334   -2.383146   -0.959420
| 54>   H     -2.588414    4.121562    0.226130
| 55>   H      4.485573    2.535150   -1.250460
| 56>   N      0.347300   -2.075867    0.458902
| 57>   N      1.141014   -2.578608    1.238343
| 58>   N      1.740933   -3.138292    2.008768
| 59>
| 60> **                         ****END OF INPUT****
 Total Charge           Charge          ....    0
 Multiplicity           Mult            ....    1
 Number of Electrons    NEL             ....  194
Dispersion correction           -0.061716501
FINAL SINGLE POINT ENERGY     -1306.815772030513
Dispersion correction            ... done
Dispersion correction           -0.061396335
FINAL SINGLE POINT ENERGY     -1306.815097322125
Dispersion correction            ... done
Dispersion correction           -0.061413775
FINAL SINGLE POINT ENERGY     -1306.815106605791
Dispersion correction            ... done
Dispersion correction           -0.061422797
FINAL SINGLE POINT ENERGY     -1306.815109087727
Dispersion correction            ... done
Dispersion correction           -0.061419654
FINAL SINGLE POINT ENERGY     -1306.815108273643
Dispersion correction            ... done
                    ***********************HURRAY********************

CARTESIAN COORDINATES (ANGSTROEM)
---------------------------------
  C      4.093744    0.990794    0.232631
  C      3.744546    1.933961   -0.760370
  C      2.430991    2.089603   -1.067960
  N      1.470605    1.405590   -0.404613
  C      1.760968    0.471980    0.563331
  C      3.128772    0.296063    0.901130
  C      0.110542    1.351408   -0.867167
  C     -0.780954    2.217855    0.009876
  O     -0.402118    2.841675    0.967135
  O     -1.999314    2.280160   -0.499119
  C     -2.945734    3.079042    0.217128
  H      5.135989    0.850053    0.495016
  H      2.077176    2.754262   -1.845310
  H      0.999223    0.335199    1.324118
  H      3.376664   -0.380016    1.708533
  H      0.070043    1.815032   -1.854063
  H     -3.054063    2.708462    1.236382
  H     -3.882187    2.978820   -0.324845
  C      0.792429   -1.064958   -0.428020
  C     -0.271961   -0.191288   -1.053430
  C     -1.670997   -0.594815   -0.674851
  C     -2.505300   -1.121912   -1.648343
  C     -3.795758   -1.544088   -1.351919
  C     -4.258956   -1.437561   -0.052073
  C     -3.446508   -0.910133    0.944930
  C     -2.160453   -0.488935    0.634324
  O     -1.314567    0.058781    1.531172
  C     -1.740143    0.207658    2.871861
  N      1.833434   -1.450119   -1.277736
  O      2.061843   -0.754758   -2.277142
  H     -0.188242   -0.341016   -2.128776
  H     -2.130716   -1.203464   -2.663455
  H     -4.427415   -1.952273   -2.131645
  H     -5.261913   -1.762957    0.200234
  H     -3.820843   -0.827996    1.956492
  H     -0.915385    0.686006    3.396018
  H     -1.948847   -0.765267    3.324842
  H     -2.629781    0.839674    2.936538
  O      2.572598   -2.381564   -0.934015
  H     -2.623082    4.119976    0.235086
  H      4.492461    2.511896   -1.283552
  N      0.352003   -2.049966    0.476985
  N      1.130159   -2.532847    1.285273
  N      1.717365   -3.077601    2.074714

 Multiplicity           Mult            ....    1
 Number of Electrons    NEL             ....  194
 Basis Dimension        Dim             ....  939

ORBITAL ENERGIES
----------------

  NO   OCC          E(Eh)            E(eV)
   0   2.0000     -19.266912      -524.2793
   1   2.0000     -19.248591      -523.7808
   2   2.0000     -19.215871      -522.8904
   3   2.0000     -19.215112      -522.8698
   4   2.0000     -19.205943      -522.6203
   5   2.0000     -14.592946      -397.0942
   6   2.0000     -14.563490      -396.2927
   7   2.0000     -14.469484      -393.7347
   8   2.0000     -14.455789      -393.3620
   9   2.0000     -14.441718      -392.9791
  10   2.0000     -10.366106      -282.0761
  11   2.0000     -10.314007      -280.6584
  12   2.0000     -10.302355      -280.3413
  13   2.0000     -10.299820      -280.2724
  14   2.0000     -10.291015      -280.0328
  15   2.0000     -10.287491      -279.9369
  16   2.0000     -10.272272      -279.5227
  17   2.0000     -10.268758      -279.4271
  18   2.0000     -10.268055      -279.4080
  19   2.0000     -10.254149      -279.0296
  20   2.0000     -10.242123      -278.7023
  21   2.0000     -10.241448      -278.6840
  22   2.0000     -10.233738      -278.4742
  23   2.0000     -10.229998      -278.3724
  24   2.0000     -10.229978      -278.3719
  25   2.0000     -10.225877      -278.2603
  26   2.0000     -10.221269      -278.1349
  27   2.0000      -1.242091       -33.7990
  28   2.0000      -1.187107       -32.3028
  29   2.0000      -1.158658       -31.5287
  30   2.0000      -1.112335       -30.2682
  31   2.0000      -1.068514       -29.0757
  32   2.0000      -1.061138       -28.8750
  33   2.0000      -1.048997       -28.5447
  34   2.0000      -1.027758       -27.9667
  35   2.0000      -0.901718       -24.5370
  36   2.0000      -0.878428       -23.9033
  37   2.0000      -0.863606       -23.4999
  38   2.0000      -0.819778       -22.3073
  39   2.0000      -0.814709       -22.1694
  40   2.0000      -0.789891       -21.4940
  41   2.0000      -0.780103       -21.2277
  42   2.0000      -0.751854       -20.4590
  43   2.0000      -0.726523       -19.7697
  44   2.0000      -0.711699       -19.3663
  45   2.0000      -0.689208       -18.7543
  46   2.0000      -0.680674       -18.5221
  47   2.0000      -0.664052       -18.0698
  48   2.0000      -0.631245       -17.1771
  49   2.0000      -0.615707       -16.7542
  50   2.0000      -0.604612       -16.4523
  51   2.0000      -0.582001       -15.8370
  52   2.0000      -0.573815       -15.6143
  53   2.0000      -0.561693       -15.2844
  54   2.0000      -0.556788       -15.1510
  55   2.0000      -0.548317       -14.9205
  56   2.0000      -0.541842       -14.7443
  57   2.0000      -0.539768       -14.6878
  58   2.0000      -0.528415       -14.3789
  59   2.0000      -0.524215       -14.2646
  60   2.0000      -0.520802       -14.1717
  61   2.0000      -0.516051       -14.0425
  62   2.0000      -0.508888       -13.8475
  63   2.0000      -0.500186       -13.6107
  64   2.0000      -0.491694       -13.3797
  65   2.0000      -0.486675       -13.2431
  66   2.0000      -0.484025       -13.1710
  67   2.0000      -0.477609       -12.9964
  68   2.0000      -0.470416       -12.8007
  69   2.0000      -0.465599       -12.6696
  70   2.0000      -0.462042       -12.5728
  71   2.0000      -0.445844       -12.1320
  72   2.0000      -0.444474       -12.0947
  73   2.0000      -0.431320       -11.7368
  74   2.0000      -0.425963       -11.5910
  75   2.0000      -0.410312       -11.1651
  76   2.0000      -0.405064       -11.0224
  77   2.0000      -0.399512       -10.8713
  78   2.0000      -0.390111       -10.6155
  79   2.0000      -0.386773       -10.5246
  80   2.0000      -0.382357       -10.4045
  81   2.0000      -0.379062       -10.3148
  82   2.0000      -0.373469       -10.1626
  83   2.0000      -0.361224        -9.8294
  84   2.0000      -0.346337        -9.4243
  85   2.0000      -0.345888        -9.4121
  86   2.0000      -0.333906        -9.0860
  87   2.0000      -0.332225        -9.0403
  88   2.0000      -0.329002        -8.9526
  89   2.0000      -0.315668        -8.5898
  90   2.0000      -0.311688        -8.4815
  91   2.0000      -0.308928        -8.4064
  92   2.0000      -0.299748        -8.1566
  93   2.0000      -0.285037        -7.7562
  94   2.0000      -0.271358        -7.3840
  95   2.0000      -0.240576        -6.5464
  96   2.0000      -0.207187        -5.6378
  97   0.0000      -0.071000        -1.9320
  98   0.0000      -0.040941        -1.1141
  99   0.0000      -0.028094        -0.7645
 100   0.0000      -0.014179        -0.3858
 101   0.0000      -0.007753        -0.2110

MULLIKEN ATOMIC CHARGES
-----------------------
   0 C :   -0.108815
   1 C :   -0.169630
   2 C :   -0.090469
   3 N :    0.143301
   4 C :   -0.031102
   5 C :   -0.234832
   6 C :   -0.089429
   7 C :    0.300787
   8 O :   -0.377538
   9 O :   -0.212556
  10 C :   -0.259348
  11 H :    0.168267
  12 H :    0.187503
  13 H :    0.195651
  14 H :    0.166135
  15 H :    0.163314
  16 H :    0.155454
  17 H :    0.163357
  18 C :   -0.230158
  19 C :    0.248006
  20 C :    0.087289
  21 C :   -0.251138
  22 C :   -0.202588
  23 C :   -0.146671
  24 C :   -0.326493
  25 C :    0.255635
  26 O :   -0.247790
  27 C :   -0.294730
  28 N :    0.528967
  29 O :   -0.451112
  30 H :    0.118857
  31 H :    0.146127
  32 H :    0.145587
  33 H :    0.150906
  34 H :    0.164807
  35 H :    0.162807
  36 H :    0.158944
  37 H :    0.156308
  38 O :   -0.459532
  39 H :    0.159596
  40 H :    0.173484
  41 N :   -0.311739
  42 N :    0.434613
  43 N :   -0.240029
Sum of atomic charges:    0.0000000

LOEWDIN ATOMIC CHARGES
----------------------
   0 C :   -0.106581
   1 C :   -0.165674
   2 C :   -0.126151
   3 N :    0.301164
   4 C :   -0.139032
   5 C :   -0.144366
   6 C :   -0.149775
   7 C :   -0.491247
   8 O :    0.092794
   9 O :    0.284729
  10 C :   -0.298516
  11 H :    0.163454
  12 H :    0.168175
  13 H :    0.173868
  14 H :    0.161657
  15 H :    0.190250
  16 H :    0.119938
  17 H :    0.123941
  18 C :   -0.311941
  19 C :   -0.138057
  20 C :   -0.111208
  21 C :   -0.110304
  22 C :   -0.165978
  23 C :   -0.144871
  24 C :   -0.138952
  25 C :   -0.242262
  26 O :    0.269573
  27 C :   -0.327469
  28 N :   -0.064121
  29 O :   -0.113715
  30 H :    0.186594
  31 H :    0.159720
  32 H :    0.152057
  33 H :    0.154514
  34 H :    0.161062
  35 H :    0.122939
  36 H :    0.120355
  37 H :    0.118059
  38 O :   -0.127314
  39 H :    0.121041
  40 H :    0.161171
  41 N :    0.047059
  42 N :    0.094023
  43 N :   -0.030606

  Mayer bond orders larger than 0.100000
B(  0-C ,  1-C ) :   1.2332 B(  0-C ,  5-C ) :   1.6109 B(  0-C , 11-H ) :   0.9529
B(  1-C ,  2-C ) :   1.5661 B(  1-C , 40-H ) :   0.9560 B(  2-C ,  3-N ) :   1.2195
B(  2-C , 12-H ) :   0.9419 B(  3-N ,  4-C ) :   1.1347 B(  3-N ,  6-C ) :   0.9413
B(  4-C ,  5-C ) :   1.1836 B(  4-C , 13-H ) :   0.9195 B(  4-C , 18-C ) :   0.4840
B(  5-C , 14-H ) :   0.9641 B(  6-C ,  7-C ) :   0.9834 B(  6-C , 15-H ) :   0.9060
B(  6-C , 19-C ) :   0.9547 B(  7-C ,  8-O ) :   2.0132 B(  7-C ,  9-O ) :   1.2549
B(  9-O , 10-C ) :   0.8824 B( 10-C , 16-H ) :   0.9693 B( 10-C , 17-H ) :   0.9646
B( 10-C , 39-H ) :   0.9625 B( 18-C , 19-C ) :   0.9717 B( 18-C , 28-N ) :   1.1195
B( 18-C , 29-O ) :   0.1294 B( 18-C , 38-O ) :   0.1497 B( 18-C , 41-N ) :   1.1015
B( 19-C , 20-C ) :   0.7393 B( 19-C , 30-H ) :   0.9073 B( 20-C , 21-C ) :   1.3678
B( 20-C , 25-C ) :   1.2354 B( 21-C , 22-C ) :   1.4030 B( 21-C , 31-H ) :   0.9774
B( 22-C , 23-C ) :   1.4059 B( 22-C , 32-H ) :   0.9840 B( 23-C , 24-C ) :   1.3881
B( 23-C , 33-H ) :   0.9701 B( 24-C , 25-C ) :   1.3908 B( 24-C , 34-H ) :   0.9611
B( 25-C , 26-O ) :   1.0911 B( 26-O , 27-C ) :   0.9220 B( 27-C , 35-H ) :   0.9642
B( 27-C , 36-H ) :   0.9602 B( 27-C , 37-H ) :   0.9625 B( 28-N , 29-O ) :   1.4307
B( 28-N , 38-O ) :   1.4127 B( 29-O , 38-O ) :   0.1157 B( 41-N , 42-N ) :   1.4086
B( 41-N , 43-N ) :   0.3315 B( 42-N , 43-N ) :   1.9946

Dispersion correction           -0.061419295
FINAL SINGLE POINT ENERGY     -1306.815108530129

DIPOLE MOMENT
-------------
                                X             Y             Z
Electronic contribution:     11.45017      -8.44167      -3.56093
Nuclear contribution   :    -13.80023      11.55841       4.42007
                        -----------------------------------------
Total Dipole Moment    :     -2.35006       3.11674       0.85914
                        -----------------------------------------
Magnitude (a.u.)       :      3.99687
Magnitude (Debye)      :     10.15924

Dispersion correction in the Hessian             ... done   (      0.7 sec)

VIBRATIONAL FREQUENCIES
-----------------------

Scaling factor for frequencies =  1.000000000  (already applied!)

   0:         0.00 cm**-1
   1:         0.00 cm**-1
   2:         0.00 cm**-1
   3:         0.00 cm**-1
   4:         0.00 cm**-1
   5:         0.00 cm**-1
   6:      -375.26 cm**-1 ***imaginary mode***
   7:        26.68 cm**-1
   8:        49.46 cm**-1
   9:        59.19 cm**-1
  10:        72.53 cm**-1
  11:        85.11 cm**-1
  12:        88.71 cm**-1
  13:        89.42 cm**-1
  14:        94.55 cm**-1
  15:       114.47 cm**-1
  16:       121.17 cm**-1
  17:       124.90 cm**-1
  18:       136.74 cm**-1
  19:       138.96 cm**-1
  20:       151.80 cm**-1
  21:       179.49 cm**-1
  22:       205.13 cm**-1
  23:       206.73 cm**-1
  24:       228.19 cm**-1
  25:       246.13 cm**-1
  26:       247.89 cm**-1
  27:       278.49 cm**-1
  28:       293.49 cm**-1
  29:       306.05 cm**-1
  30:       309.10 cm**-1
  31:       323.97 cm**-1
  32:       368.29 cm**-1
  33:       392.29 cm**-1
  34:       444.63 cm**-1
  35:       473.28 cm**-1
  36:       485.54 cm**-1
  37:       507.97 cm**-1
  38:       528.28 cm**-1
  39:       553.72 cm**-1
  40:       571.97 cm**-1
  41:       572.89 cm**-1
  42:       588.95 cm**-1
  43:       621.02 cm**-1
  44:       632.55 cm**-1
  45:       646.26 cm**-1
  46:       669.28 cm**-1
  47:       698.70 cm**-1
  48:       706.89 cm**-1
  49:       718.91 cm**-1
  50:       755.10 cm**-1
  51:       765.58 cm**-1
  52:       768.89 cm**-1
  53:       779.00 cm**-1
  54:       795.77 cm**-1
  55:       825.75 cm**-1
  56:       839.42 cm**-1
  57:       844.68 cm**-1
  58:       871.12 cm**-1
  59:       880.65 cm**-1
  60:       910.47 cm**-1
  61:       937.06 cm**-1
  62:       955.81 cm**-1
  63:       969.33 cm**-1
  64:       987.49 cm**-1
  65:       991.61 cm**-1
  66:      1008.41 cm**-1
  67:      1017.15 cm**-1
  68:      1051.43 cm**-1
  69:      1056.10 cm**-1
  70:      1071.00 cm**-1
  71:      1084.95 cm**-1
  72:      1093.52 cm**-1
  73:      1109.43 cm**-1
  74:      1142.43 cm**-1
  75:      1155.58 cm**-1
  76:      1170.78 cm**-1
  77:      1171.80 cm**-1
  78:      1173.63 cm**-1
  79:      1174.64 cm**-1
  80:      1200.63 cm**-1
  81:      1204.06 cm**-1
  82:      1207.60 cm**-1
  83:      1208.84 cm**-1
  84:      1231.99 cm**-1
  85:      1238.55 cm**-1
  86:      1261.16 cm**-1
  87:      1263.48 cm**-1
  88:      1282.45 cm**-1
  89:      1307.52 cm**-1
  90:      1335.33 cm**-1
  91:      1345.89 cm**-1
  92:      1349.41 cm**-1
  93:      1370.27 cm**-1
  94:      1378.45 cm**-1
  95:      1387.73 cm**-1
  96:      1417.73 cm**-1
  97:      1422.67 cm**-1
  98:      1465.14 cm**-1
  99:      1465.61 cm**-1
 100:      1469.46 cm**-1
 101:      1472.10 cm**-1
 102:      1474.60 cm**-1
 103:      1483.94 cm**-1
 104:      1491.87 cm**-1
 105:      1498.99 cm**-1
 106:      1506.63 cm**-1
 107:      1515.39 cm**-1
 108:      1541.13 cm**-1
 109:      1601.54 cm**-1
 110:      1651.11 cm**-1
 111:      1664.75 cm**-1
 112:      1681.73 cm**-1
 113:      1793.88 cm**-1
 114:      2277.87 cm**-1
 115:      3040.78 cm**-1
 116:      3074.90 cm**-1
 117:      3113.46 cm**-1
 118:      3113.67 cm**-1
 119:      3127.43 cm**-1
 120:      3159.52 cm**-1
 121:      3167.33 cm**-1
 122:      3173.50 cm**-1
 123:      3186.52 cm**-1
 124:      3191.82 cm**-1
 125:      3196.29 cm**-1
 126:      3206.94 cm**-1
 127:      3213.89 cm**-1
 128:      3230.77 cm**-1
 129:      3233.49 cm**-1
 130:      3234.49 cm**-1
 131:      3250.64 cm**-1

IR SPECTRUM
-----------

 Mode   freq       eps      Int      T**2         TX        TY        TZ
       cm**-1   L/(mol*cm) km/mol    a.u.
----------------------------------------------------------------------------
  7:     26.68   0.000192    0.97  0.002245  ( 0.010842  0.018746 -0.042140)
  8:     49.46   0.000117    0.59  0.000737  ( 0.024528  0.008639  0.007773)
  9:     59.19   0.000484    2.45  0.002553  (-0.020003  0.024090 -0.039650)
 10:     72.53   0.000572    2.89  0.002460  ( 0.001520 -0.044477 -0.021895)
 11:     85.11   0.001060    5.36  0.003887  (-0.004954 -0.058524  0.020911)
 12:     88.71   0.001082    5.47  0.003807  (-0.058687  0.012277  0.014557)
 13:     89.42   0.000443    2.24  0.001545  (-0.011691 -0.003977 -0.037317)
 14:     94.55   0.000733    3.70  0.002419  ( 0.023620  0.035036  0.025172)
 15:    114.47   0.000467    2.36  0.001274  (-0.004730 -0.030551  0.017853)
 16:    121.17   0.000381    1.93  0.000982  (-0.012266  0.026820 -0.010585)
 17:    124.90   0.000147    0.74  0.000366  ( 0.005349 -0.012192  0.013744)
 18:    136.74   0.001792    9.06  0.004089  ( 0.038147  0.048034  0.018077)
 19:    138.96   0.000222    1.12  0.000500  ( 0.015379  0.012085 -0.010817)
 20:    151.80   0.000061    0.31  0.000126  ( 0.002397  0.002557  0.010664)
 21:    179.49   0.001498    7.57  0.002604  (-0.022470  0.045068 -0.008238)
 22:    205.13   0.001433    7.24  0.002180  ( 0.009544  0.031753  0.032866)
 23:    206.73   0.000655    3.31  0.000988  ( 0.000410 -0.024548  0.019631)
 24:    228.19   0.006377   32.23  0.008722  ( 0.021664  0.090660  0.005733)
 25:    246.13   0.000595    3.01  0.000755  (-0.016526  0.015741 -0.015297)
 26:    247.89   0.000764    3.86  0.000962  ( 0.005739 -0.028445  0.010943)
 27:    278.49   0.006685   33.79  0.007491  ( 0.068466 -0.052391  0.007670)
 28:    293.49   0.001359    6.87  0.001445  (-0.017667 -0.032685 -0.008024)
 29:    306.05   0.000757    3.83  0.000772  (-0.000647 -0.027782  0.000289)
 30:    309.10   0.002153   10.88  0.002174  ( 0.013563 -0.041132 -0.017269)
 31:    323.97   0.000252    1.27  0.000243  (-0.010584  0.005670 -0.009936)
 32:    368.29   0.002665   13.47  0.002258  ( 0.046821 -0.000762 -0.008061)
 33:    392.29   0.004117   20.81  0.003275  ( 0.003764 -0.054877  0.015794)
 34:    444.63   0.000402    2.03  0.000282  ( 0.008147 -0.012958 -0.006922)
 35:    473.28   0.000639    3.23  0.000421  ( 0.008224 -0.017763 -0.006189)
 36:    485.54   0.001046    5.29  0.000672  (-0.004831  0.025099  0.004372)
 37:    507.97   0.000469    2.37  0.000288  (-0.007689 -0.012507  0.008501)
 38:    528.28   0.003370   17.03  0.001991  ( 0.009696  0.037738 -0.021734)
 39:    553.72   0.004244   21.45  0.002392  ( 0.002369  0.047413 -0.011758)
 40:    571.97   0.001311    6.63  0.000715  ( 0.023159 -0.013262  0.001779)
 41:    572.89   0.009547   48.25  0.005201  (-0.052037 -0.044739 -0.022163)
 42:    588.95   0.004020   20.32  0.002130  (-0.003338 -0.025628  0.038239)
 43:    621.02   0.003548   17.93  0.001783  ( 0.037609  0.001600  0.019132)
 44:    632.55   0.010108   51.08  0.004987  ( 0.008884  0.069338  0.009989)
 45:    646.26   0.006863   34.68  0.003314  (-0.001470 -0.048628 -0.030778)
 46:    669.28   0.005294   26.75  0.002468  (-0.020939  0.041218  0.018192)
 47:    698.70   0.006873   34.73  0.003070  ( 0.015796  0.013835  0.051271)
 48:    706.89   0.021851  110.43  0.009646  ( 0.039796 -0.084914 -0.029193)
 49:    718.91   0.043459  219.62  0.018865  (-0.000643  0.127866  0.050144)
 50:    755.10   0.005686   28.74  0.002350  ( 0.020365  0.003311  0.043868)
 51:    765.58   0.007962   40.23  0.003245  ( 0.018852 -0.048978  0.022158)
 52:    768.89   0.016598   83.88  0.006736  ( 0.018621 -0.079871 -0.003199)
 53:    779.00   0.002643   13.36  0.001059  (-0.017594  0.018342 -0.020318)
 54:    795.77   0.000185    0.93  0.000073  (-0.002027 -0.006957  0.004474)
 55:    825.75   0.001698    8.58  0.000642  (-0.001318  0.020408  0.014951)
 56:    839.42   0.009747   49.26  0.003624  ( 0.035113 -0.048528  0.005973)
 57:    844.68   0.006156   31.11  0.002274  ( 0.038440  0.013020  0.025041)
 58:    871.12   0.004398   22.22  0.001575  (-0.007037 -0.035601 -0.016076)
 59:    880.65   0.005306   26.82  0.001880  ( 0.028045  0.018489  0.027422)
 60:    910.47   0.005284   26.70  0.001811  (-0.025539  0.017016  0.029486)
 61:    937.06   0.008363   42.27  0.002785  (-0.014135 -0.050828  0.001380)
 62:    955.81   0.002880   14.56  0.000940  (-0.011147  0.026855  0.009747)
 63:    969.33   0.000335    1.70  0.000108  (-0.000128  0.007368  0.007327)
 64:    987.49   0.004375   22.11  0.001383  ( 0.006684 -0.031553 -0.018504)
 65:    991.61   0.011755   59.41  0.003699  ( 0.011368 -0.052108 -0.029240)
 66:   1008.41   0.022017  111.26  0.006813  (-0.013230 -0.077598 -0.024836)
 67:   1017.15   0.000877    4.43  0.000269  (-0.000623  0.013071  0.009895)
 68:   1051.43   0.007996   40.41  0.002373  (-0.034207  0.029134  0.018820)
 69:   1056.10   0.002759   13.94  0.000815  (-0.018665 -0.003619  0.021305)
 70:   1071.00   0.011932   60.30  0.003477  (-0.031531  0.004791  0.049595)
 71:   1084.95   0.004220   21.33  0.001214  (-0.004258 -0.003708 -0.034380)
 72:   1093.52   0.019938  100.76  0.005690  (-0.026296 -0.048230 -0.051694)
 73:   1109.43   0.008172   41.30  0.002299  (-0.006445 -0.045299 -0.014324)
 74:   1142.43   0.006083   30.74  0.001662  ( 0.009296 -0.025631  0.030303)
 75:   1155.58   0.024243  122.52  0.006547  (-0.035054  0.044627  0.057676)
 76:   1170.78   0.000378    1.91  0.000101  (-0.000269 -0.008548  0.005253)
 77:   1171.80   0.000235    1.19  0.000063  ( 0.004408 -0.005691 -0.003270)
 78:   1173.63   0.001006    5.08  0.000267  (-0.004379 -0.000156  0.015756)
 79:   1174.64   0.002813   14.22  0.000747  ( 0.012433 -0.022706  0.008788)
 80:   1200.63   0.026527  134.06  0.006895  ( 0.061223 -0.022312 -0.051466)
 81:   1204.06   0.006981   35.28  0.001809  (-0.038951  0.005059 -0.016327)
 82:   1207.60   0.002091   10.57  0.000540  (-0.012517  0.017718  0.008358)
 83:   1208.84   0.000611    3.09  0.000158  (-0.009953 -0.006267  0.004409)
 84:   1231.99   0.003893   19.68  0.000986  (-0.030769 -0.004898 -0.003930)
 85:   1238.55   0.033893  171.28  0.008540  (-0.069242  0.060969  0.005281)
 86:   1261.16   0.024396  123.29  0.006037  ( 0.076860 -0.011294  0.001270)
 87:   1263.48   0.083333  421.13  0.020582  (-0.111535  0.089863  0.008177)
 88:   1282.45   0.010316   52.13  0.002510  (-0.018455  0.010334  0.045418)
 89:   1307.52   0.061277  309.67  0.014625  ( 0.057292  0.045486  0.096300)
 90:   1335.33   0.003208   16.21  0.000750  (-0.022770 -0.010493  0.011007)
 91:   1345.89   0.023221  117.35  0.005384  ( 0.054522  0.002348  0.049051)
 92:   1349.41   0.107033  540.90  0.024752  ( 0.025396 -0.108695 -0.110873)
 93:   1370.27   0.024746  125.06  0.005636  ( 0.058855 -0.042035 -0.020121)
 94:   1378.45   0.016852   85.16  0.003815  ( 0.020579  0.016268  0.055919)
 95:   1387.73   0.005182   26.19  0.001165  (-0.026772  0.005783  0.020376)
 96:   1417.73   0.070902  358.31  0.015607  (-0.029119  0.095340 -0.075293)
 97:   1422.67   0.009873   49.89  0.002166  ( 0.019866 -0.027606 -0.031762)
 98:   1465.14   0.004022   20.33  0.000857  ( 0.001796  0.014438  0.025399)
 99:   1465.61   0.004498   22.73  0.000958  (-0.004781  0.030574 -0.000315)
100:   1469.46   0.011048   55.83  0.002346  (-0.046501  0.001927  0.013425)
101:   1472.10   0.005180   26.18  0.001098  ( 0.022266 -0.014525  0.019783)
102:   1474.60   0.002979   15.05  0.000630  ( 0.003451 -0.012017 -0.021774)
103:   1483.94   0.003182   16.08  0.000669  ( 0.019601  0.010760  0.013004)
104:   1491.87   0.020943  105.84  0.004381  ( 0.038552  0.039559 -0.036465)
105:   1498.99   0.011941   60.34  0.002486  ( 0.018413  0.036340  0.028743)
106:   1506.63   0.074791  377.96  0.015491  (-0.030072  0.098396 -0.070037)
107:   1515.39   0.003278   16.56  0.000675  (-0.016059  0.018703 -0.008200)
108:   1541.13   0.033848  171.05  0.006854  ( 0.047397  0.027721  0.061959)
109:   1601.54   0.042938  216.99  0.008367  (-0.018385 -0.079518  0.041298)
110:   1651.11   0.007135   36.06  0.001349  (-0.004174 -0.009761 -0.035155)
111:   1664.75   0.012192   61.61  0.002285  (-0.033797 -0.020655 -0.026770)
112:   1681.73   0.037016  187.06  0.006869  (-0.081325 -0.014265 -0.007171)
113:   1793.88   0.101986  515.39  0.017741  ( 0.068772  0.067767  0.091758)
114:   2277.87   0.296701  1499.41  0.040648  ( 0.075815 -0.120003  0.143174)
115:   3040.78   0.012263   61.97  0.001259  ( 0.010065 -0.004039 -0.033777)
116:   3074.90   0.006135   31.00  0.000623  (-0.017533  0.014837  0.009751)
117:   3113.46   0.007129   36.03  0.000715  (-0.010326  0.023994 -0.005673)
118:   3113.67   0.001205    6.09  0.000121  ( 0.005720 -0.008405 -0.004171)
119:   3127.43   0.000582    2.94  0.000058  (-0.007618  0.000105 -0.000129)
120:   3159.52   0.003569   18.04  0.000352  (-0.004718 -0.014575  0.010853)
121:   3167.33   0.003437   17.37  0.000339  (-0.016224 -0.006476 -0.005785)
122:   3173.50   0.002012   10.17  0.000198  ( 0.007718 -0.008678 -0.007933)
123:   3186.52   0.000839    4.24  0.000082  (-0.004771 -0.000204  0.007702)
124:   3191.82   0.001968    9.95  0.000192  ( 0.010660  0.001940  0.008663)
125:   3196.29   0.001795    9.07  0.000175  (-0.010318 -0.002467  0.007920)
126:   3206.94   0.001001    5.06  0.000097  ( 0.008593 -0.001609  0.004577)
127:   3213.89   0.003310   16.73  0.000321  ( 0.012229  0.006764  0.011231)
128:   3230.77   0.000333    1.68  0.000032  (-0.003109  0.000198  0.004741)
129:   3233.49   0.000481    2.43  0.000046  ( 0.005378  0.001284  0.003978)
130:   3234.49   0.000041    0.21  0.000004  (-0.000955 -0.000825  0.001542)
131:   3250.64   0.000017    0.09  0.000002  ( 0.001142  0.000540  0.000275)

--------------------------
THERMOCHEMISTRY AT 298.15K
--------------------------

Temperature         ... 298.15 K
Pressure            ... 1.00 atm
Total Mass          ... 371.35 AMU

Throughout the following assumptions are being made:
  (1) The electronic state is orbitally nondegenerate
  (2) There are no thermally accessible electronically excited states
  (3) Hindered rotations indicated by low frequency modes are not
      treated as such but are treated as vibrations and this may
      cause some error
  (4) All equations used are the standard statistical mechanics
      equations for an ideal gas
  (5) All vibrations are strictly harmonic

freq.      26.68  E(vib)   ...       0.56
freq.      49.46  E(vib)   ...       0.52
freq.      59.19  E(vib)   ...       0.51
freq.      72.53  E(vib)   ...       0.49
freq.      85.11  E(vib)   ...       0.48
freq.      88.71  E(vib)   ...       0.47
freq.      89.42  E(vib)   ...       0.47
freq.      94.55  E(vib)   ...       0.47
freq.     114.47  E(vib)   ...       0.44
freq.     121.17  E(vib)   ...       0.44
freq.     124.90  E(vib)   ...       0.43
freq.     136.74  E(vib)   ...       0.42
freq.     138.96  E(vib)   ...       0.42
freq.     151.80  E(vib)   ...       0.40
freq.     179.49  E(vib)   ...       0.37
freq.     205.13  E(vib)   ...       0.35
freq.     206.73  E(vib)   ...       0.35
freq.     228.19  E(vib)   ...       0.32
freq.     246.13  E(vib)   ...       0.31
freq.     247.89  E(vib)   ...       0.31
freq.     278.49  E(vib)   ...       0.28
freq.     293.49  E(vib)   ...       0.27
freq.     306.05  E(vib)   ...       0.26
freq.     309.10  E(vib)   ...       0.26
freq.     323.97  E(vib)   ...       0.25
freq.     368.29  E(vib)   ...       0.21
freq.     392.29  E(vib)   ...       0.20
freq.     444.63  E(vib)   ...       0.17
freq.     473.28  E(vib)   ...       0.15
freq.     485.54  E(vib)   ...       0.15
freq.     507.97  E(vib)   ...       0.14
freq.     528.28  E(vib)   ...       0.13
freq.     553.72  E(vib)   ...       0.12
freq.     571.97  E(vib)   ...       0.11
freq.     572.89  E(vib)   ...       0.11
freq.     588.95  E(vib)   ...       0.10
freq.     621.02  E(vib)   ...       0.09
freq.     632.55  E(vib)   ...       0.09
freq.     646.26  E(vib)   ...       0.09
freq.     669.28  E(vib)   ...       0.08
freq.     698.70  E(vib)   ...       0.07
freq.     706.89  E(vib)   ...       0.07
freq.     718.91  E(vib)   ...       0.07
freq.     755.10  E(vib)   ...       0.06
freq.     765.58  E(vib)   ...       0.06
freq.     768.89  E(vib)   ...       0.06
freq.     779.00  E(vib)   ...       0.05
freq.     795.77  E(vib)   ...       0.05
freq.     825.75  E(vib)   ...       0.04
freq.     839.42  E(vib)   ...       0.04
freq.     844.68  E(vib)   ...       0.04
freq.     871.12  E(vib)   ...       0.04
freq.     880.65  E(vib)   ...       0.04
freq.     910.47  E(vib)   ...       0.03
freq.     937.06  E(vib)   ...       0.03
freq.     955.81  E(vib)   ...       0.03
freq.     969.33  E(vib)   ...       0.03
freq.     987.49  E(vib)   ...       0.02
freq.     991.61  E(vib)   ...       0.02
freq.    1008.41  E(vib)   ...       0.02
freq.    1017.15  E(vib)   ...       0.02
freq.    1051.43  E(vib)   ...       0.02
freq.    1056.10  E(vib)   ...       0.02
freq.    1071.00  E(vib)   ...       0.02
freq.    1084.95  E(vib)   ...       0.02
freq.    1093.52  E(vib)   ...       0.02
freq.    1109.43  E(vib)   ...       0.02
freq.    1142.43  E(vib)   ...       0.01
freq.    1155.58  E(vib)   ...       0.01
freq.    1170.78  E(vib)   ...       0.01
freq.    1171.80  E(vib)   ...       0.01
freq.    1173.63  E(vib)   ...       0.01
freq.    1174.64  E(vib)   ...       0.01
freq.    1200.63  E(vib)   ...       0.01
freq.    1204.06  E(vib)   ...       0.01
freq.    1207.60  E(vib)   ...       0.01
freq.    1208.84  E(vib)   ...       0.01
freq.    1231.99  E(vib)   ...       0.01
freq.    1238.55  E(vib)   ...       0.01
freq.    1261.16  E(vib)   ...       0.01
freq.    1263.48  E(vib)   ...       0.01
freq.    1282.45  E(vib)   ...       0.01
freq.    1307.52  E(vib)   ...       0.01
freq.    1335.33  E(vib)   ...       0.01
freq.    1345.89  E(vib)   ...       0.01
freq.    1349.41  E(vib)   ...       0.01
freq.    1370.27  E(vib)   ...       0.01
freq.    1378.45  E(vib)   ...       0.01
freq.    1387.73  E(vib)   ...       0.00
freq.    1417.73  E(vib)   ...       0.00
freq.    1422.67  E(vib)   ...       0.00
freq.    1465.14  E(vib)   ...       0.00
freq.    1465.61  E(vib)   ...       0.00
freq.    1469.46  E(vib)   ...       0.00
freq.    1472.10  E(vib)   ...       0.00
freq.    1474.60  E(vib)   ...       0.00
freq.    1483.94  E(vib)   ...       0.00
freq.    1491.87  E(vib)   ...       0.00
freq.    1498.99  E(vib)   ...       0.00
freq.    1506.63  E(vib)   ...       0.00
freq.    1515.39  E(vib)   ...       0.00
freq.    1541.13  E(vib)   ...       0.00
freq.    1601.54  E(vib)   ...       0.00
freq.    1651.11  E(vib)   ...       0.00
freq.    1664.75  E(vib)   ...       0.00
freq.    1681.73  E(vib)   ...       0.00
freq.    1793.88  E(vib)   ...       0.00
freq.    2277.87  E(vib)   ...       0.00
freq.    3040.78  E(vib)   ...       0.00
freq.    3074.90  E(vib)   ...       0.00
freq.    3113.46  E(vib)   ...       0.00
freq.    3113.67  E(vib)   ...       0.00
freq.    3127.43  E(vib)   ...       0.00
freq.    3159.52  E(vib)   ...       0.00
freq.    3167.33  E(vib)   ...       0.00
freq.    3173.50  E(vib)   ...       0.00
freq.    3186.52  E(vib)   ...       0.00
freq.    3191.82  E(vib)   ...       0.00
freq.    3196.29  E(vib)   ...       0.00
freq.    3206.94  E(vib)   ...       0.00
freq.    3213.89  E(vib)   ...       0.00
freq.    3230.77  E(vib)   ...       0.00
freq.    3233.49  E(vib)   ...       0.00
freq.    3234.49  E(vib)   ...       0.00
freq.    3250.64  E(vib)   ...       0.00

------------
INNER ENERGY
------------

The inner energy is: U= E(el) + E(ZPE) + E(vib) + E(rot) + E(trans)
    E(el)   - is the total energy from the electronic structure calculation
              = E(kin-el) + E(nuc-el) + E(el-el) + E(nuc-nuc)
    E(ZPE)  - the the zero temperature vibrational energy from the frequency calculation
    E(vib)  - the the finite temperature correction to E(ZPE) due to population
              of excited vibrational states
    E(rot)  - is the rotational thermal energy
    E(trans)- is the translational thermal energy

Summary of contributions to the inner energy U:
Electronic energy                ...  -1306.81510853 Eh
Zero point energy                ...      0.33740388 Eh     211.72 kcal/mol
Thermal vibrational correction   ...      0.02075278 Eh      13.02 kcal/mol
Thermal rotational correction    ...      0.00141627 Eh       0.89 kcal/mol

Rotational constants in cm-1:     0.010049     0.006492     0.005327

                             ****ORCA TERMINATED NORMALLY****
TOTAL RUN TIME: 0 days 1 hours 17 minutes 12 seconds 674 msec
