                         Program Version 5.0.4 -  RELEASE  -
|  1> %pal nprocs 24 end
|  2> %maxcore 3500
|  3> !PBE0 D3BJ def2-TZVP TightOpt TightSCF OPTTS FREQ
|  4> !CPCM(dmso)
|  5> %scf
|  6> MaxIter 800
|  7> end
|  8> %geom
|  9> MaxIter 800
| 10> MaxStep 0.2
| 11> inHess Read
| 12> InHessName "TS1_NMe2-preopt.hess"
| 13> end
| 14> *xyz 0 1
| 15>   C      4.119896    1.100218    0.555038
| 16>   C      3.870173    1.822238   -0.620931
| 17>   C      2.594615    1.863148   -1.101158
| 18>   N      1.585243    1.272593   -0.431567
| 19>   C      1.783571    0.596101    0.723061
| 20>   C      3.082381    0.508834    1.232770
| 21>   C      0.263709    1.160070   -1.004343
| 22>   C     -0.648558    2.205796   -0.385601
| 23>   O     -0.323397    2.974427    0.482332
| 24>   O     -1.817823    2.214111   -1.001140
| 25>   C     -2.788011    3.142665   -0.506889
| 26>   H      5.128222    1.038019    0.946981
| 27>   H      2.323594    2.348662   -2.029243
| 28>   H      0.905975    0.411185    1.320625
| 29>   H      3.241834   -0.006209    2.169966
| 30>   H      0.345306    1.437640   -2.055460
| 31>   H     -3.682125    2.974650   -1.101046
| 32>   H     -2.431336    4.164963   -0.632047
| 33>   C      0.771769   -1.268756   -0.253664
| 34>   C     -0.213104   -0.368639   -0.967086
| 35>   C     -1.630630   -0.599743   -0.515706
| 36>   C     -2.533258   -1.158565   -1.406747
| 37>   C     -3.851030   -1.422693   -1.050206
| 38>   C     -4.275639   -1.118996    0.230732
| 39>   C     -3.395322   -0.554233    1.146777
| 40>   C     -2.082369   -0.295458    0.775819
| 41>   O     -1.180043    0.281080    1.598672
| 42>   C     -1.591150    0.686048    2.888878
| 43>   N      1.882885   -1.577955   -0.981923
| 44>   O      2.135629   -0.911545   -2.020334
| 45>   H     -0.179212   -0.645328   -2.021791
| 46>   H     -2.189899   -1.393130   -2.409229
| 47>   H     -4.533073   -1.859595   -1.769728
| 48>   H     -5.298496   -1.315885    0.531721
| 49>   H     -3.739264   -0.317737    2.144741
| 50>   H     -1.906476   -0.172249    3.488245
| 51>   H     -2.405601    1.413665    2.833370
| 52>   H     -0.720577    1.149691    3.348990
| 53>   O      2.685920   -2.455355   -0.581881
| 54>   H     -2.988396    2.947173    0.546750
| 55>   H      4.661990    2.318508   -1.163679
| 56>   N      0.322616   -2.171145    0.722427
| 57>   C     -0.116219   -3.452614    0.200935
| 58>   H      0.718228   -4.098201   -0.108231
| 59>   H     -0.690168   -3.976936    0.969756
| 60>   H     -0.768749   -3.292982   -0.659125
| 61>   C      1.053671   -2.290284    1.964460
| 62>   H      1.153149   -1.320214    2.450957
| 63>   H      0.480907   -2.931502    2.639216
| 64>   H      2.053993   -2.726009    1.840116
| 65>
| 66> **                         ****END OF INPUT****
 Total Charge           Charge          ....    0
 Multiplicity           Mult            ....    1
 Number of Electrons    NEL             ....  198
Dispersion correction           -0.069385437
FINAL SINGLE POINT ENERGY     -1277.194060363922
Dispersion correction            ... done
Dispersion correction           -0.069522133
FINAL SINGLE POINT ENERGY     -1277.192936866473
Dispersion correction            ... done
Dispersion correction           -0.069476346
FINAL SINGLE POINT ENERGY     -1277.192468668363
Dispersion correction            ... done
FINAL SINGLE POINT ENERGY     -1277.192445807009
FINAL SINGLE POINT ENERGY     -1277.192298098983
FINAL SINGLE POINT ENERGY     -1277.192519528189
FINAL SINGLE POINT ENERGY     -1277.192548437907
FINAL SINGLE POINT ENERGY     -1277.192548702684
FINAL SINGLE POINT ENERGY     -1277.192523053794
FINAL SINGLE POINT ENERGY     -1277.192543910575
FINAL SINGLE POINT ENERGY     -1277.192549958287
FINAL SINGLE POINT ENERGY     -1277.192541114996
FINAL SINGLE POINT ENERGY     -1277.192481642334
Dispersion correction           -0.069317515
FINAL SINGLE POINT ENERGY     -1277.192548505206
Dispersion correction            ... done
Dispersion correction           -0.069310539
FINAL SINGLE POINT ENERGY     -1277.192548000088
Dispersion correction            ... done
                    ***********************HURRAY********************

CARTESIAN COORDINATES (ANGSTROEM)
---------------------------------
  C      4.133349    0.975960    0.465200
  C      3.879651    1.770833   -0.674700
  C      2.597881    1.876557   -1.111099
  N      1.580332    1.288474   -0.442832
  C      1.775190    0.513524    0.671911
  C      3.106989    0.380139    1.138814
  C      0.255920    1.197694   -0.996319
  C     -0.652845    2.228674   -0.347161
  O     -0.307346    3.006996    0.504359
  O     -1.842744    2.223492   -0.923549
  C     -2.806054    3.141363   -0.398419
  H      5.148391    0.871495    0.830947
  H      2.315321    2.421602   -2.002512
  H      0.939267    0.471395    1.356978
  H      3.283407   -0.180326    2.046428
  H      0.311899    1.492748   -2.045466
  H     -3.718835    2.960167   -0.959561
  H     -2.467497    4.167858   -0.539080
  C      0.810386   -1.185691   -0.198905
  C     -0.197737   -0.336813   -0.960370
  C     -1.617323   -0.597307   -0.534725
  C     -2.489093   -1.187731   -1.436145
  C     -3.804913   -1.485284   -1.099190
  C     -4.258574   -1.184523    0.172497
  C     -3.410634   -0.585494    1.097352
  C     -2.100286   -0.290253    0.744895
  O     -1.230562    0.327323    1.571584
  C     -1.668126    0.718606    2.857110
  N      1.903016   -1.576746   -0.977301
  O      2.140125   -0.960265   -2.032676
  H     -0.133262   -0.633017   -2.007105
  H     -2.121560   -1.423560   -2.429762
  H     -4.462250   -1.947511   -1.825826
  H     -5.279844   -1.409593    0.458786
  H     -3.777986   -0.348554    2.086867
  H     -1.957552   -0.150163    3.454586
  H     -2.507724    1.416466    2.793645
  H     -0.819205    1.214086    3.324383
  O      2.679063   -2.447599   -0.550995
  H     -2.966725    2.947407    0.662336
  H      4.674379    2.270683   -1.209284
  N      0.349078   -2.092851    0.767071
  C     -0.114966   -3.363872    0.242416
  H      0.708756   -4.040303   -0.026395
  H     -0.733457   -3.858615    0.995992
  H     -0.729620   -3.196370   -0.642881
  C      1.064275   -2.236052    2.015246
  H      1.218950   -1.267874    2.489478
  H      0.449513   -2.833557    2.693192
  H      2.036929   -2.734094    1.904768

 Multiplicity           Mult            ....    1
 Number of Electrons    NEL             ....  198
 Basis Dimension        Dim             ....  975

ORBITAL ENERGIES
----------------

  NO   OCC          E(Eh)            E(eV)
   0   2.0000     -19.265402      -524.2382
   1   2.0000     -19.245479      -523.6961
   2   2.0000     -19.204540      -522.5821
   3   2.0000     -19.200792      -522.4801
   4   2.0000     -19.199555      -522.4465
   5   2.0000     -14.575111      -396.6089
   6   2.0000     -14.467107      -393.6700
   7   2.0000     -14.381533      -391.3414
   8   2.0000     -10.363999      -282.0188
   9   2.0000     -10.296417      -280.1798
  10   2.0000     -10.295082      -280.1434
  11   2.0000     -10.287351      -279.9331
  12   2.0000     -10.284979      -279.8685
  13   2.0000     -10.284973      -279.8684
  14   2.0000     -10.271633      -279.5053
  15   2.0000     -10.266738      -279.3721
  16   2.0000     -10.257188      -279.1123
  17   2.0000     -10.251631      -278.9611
  18   2.0000     -10.239151      -278.6215
  19   2.0000     -10.236104      -278.5385
  20   2.0000     -10.231716      -278.4191
  21   2.0000     -10.229280      -278.3529
  22   2.0000     -10.229067      -278.3471
  23   2.0000     -10.227171      -278.2955
  24   2.0000     -10.226079      -278.2657
  25   2.0000     -10.223043      -278.1831
  26   2.0000     -10.218705      -278.0651
  27   2.0000      -1.222534       -33.2668
  28   2.0000      -1.157126       -31.4870
  29   2.0000      -1.109255       -30.1844
  30   2.0000      -1.066457       -29.0198
  31   2.0000      -1.047623       -28.5073
  32   2.0000      -1.038971       -28.2718
  33   2.0000      -0.963567       -26.2200
  34   2.0000      -0.891960       -24.2715
  35   2.0000      -0.873205       -23.7611
  36   2.0000      -0.839408       -22.8415
  37   2.0000      -0.816329       -22.2134
  38   2.0000      -0.801978       -21.8229
  39   2.0000      -0.786422       -21.3996
  40   2.0000      -0.776732       -21.1360
  41   2.0000      -0.747827       -20.3494
  42   2.0000      -0.725074       -19.7303
  43   2.0000      -0.722556       -19.6617
  44   2.0000      -0.702597       -19.1186
  45   2.0000      -0.682796       -18.5798
  46   2.0000      -0.668185       -18.1822
  47   2.0000      -0.658789       -17.9266
  48   2.0000      -0.626577       -17.0500
  49   2.0000      -0.612613       -16.6701
  50   2.0000      -0.602427       -16.3929
  51   2.0000      -0.576798       -15.6955
  52   2.0000      -0.563776       -15.3411
  53   2.0000      -0.557226       -15.1629
  54   2.0000      -0.549032       -14.9399
  55   2.0000      -0.540125       -14.6976
  56   2.0000      -0.536298       -14.5934
  57   2.0000      -0.525474       -14.2989
  58   2.0000      -0.519449       -14.1349
  59   2.0000      -0.514880       -14.0106
  60   2.0000      -0.512558       -13.9474
  61   2.0000      -0.503551       -13.7023
  62   2.0000      -0.495851       -13.4928
  63   2.0000      -0.486967       -13.2510
  64   2.0000      -0.484443       -13.1824
  65   2.0000      -0.476601       -12.9690
  66   2.0000      -0.473478       -12.8840
  67   2.0000      -0.463853       -12.6221
  68   2.0000      -0.462356       -12.5813
  69   2.0000      -0.455508       -12.3950
  70   2.0000      -0.451487       -12.2856
  71   2.0000      -0.443334       -12.0637
  72   2.0000      -0.436345       -11.8736
  73   2.0000      -0.426649       -11.6097
  74   2.0000      -0.420755       -11.4493
  75   2.0000      -0.409822       -11.1518
  76   2.0000      -0.402010       -10.9393
  77   2.0000      -0.397672       -10.8212
  78   2.0000      -0.394924       -10.7464
  79   2.0000      -0.392124       -10.6702
  80   2.0000      -0.384536       -10.4638
  81   2.0000      -0.379727       -10.3329
  82   2.0000      -0.378132       -10.2895
  83   2.0000      -0.373640       -10.1673
  84   2.0000      -0.371983       -10.1222
  85   2.0000      -0.367224        -9.9927
  86   2.0000      -0.342486        -9.3195
  87   2.0000      -0.341097        -9.2817
  88   2.0000      -0.331809        -9.0290
  89   2.0000      -0.330153        -8.9839
  90   2.0000      -0.315715        -8.5910
  91   2.0000      -0.311908        -8.4875
  92   2.0000      -0.305364        -8.3094
  93   2.0000      -0.296700        -8.0736
  94   2.0000      -0.281210        -7.6521
  95   2.0000      -0.266580        -7.2540
  96   2.0000      -0.238150        -6.4804
  97   2.0000      -0.229118        -6.2346
  98   2.0000      -0.204879        -5.5750
  99   0.0000      -0.064695        -1.7604
 100   0.0000      -0.031776        -0.8647
 101   0.0000      -0.011972        -0.3258
 102   0.0000      -0.000394        -0.0107
 103   0.0000       0.005906         0.1607

MULLIKEN ATOMIC CHARGES
-----------------------
   0 C :   -0.115455
   1 C :   -0.173951
   2 C :   -0.088125
   3 N :    0.145863
   4 C :   -0.108508
   5 C :   -0.213582
   6 C :   -0.051037
   7 C :    0.295309
   8 O :   -0.380841
   9 O :   -0.214861
  10 C :   -0.262359
  11 H :    0.166594
  12 H :    0.184936
  13 H :    0.226971
  14 H :    0.167306
  15 H :    0.155344
  16 H :    0.162911
  17 H :    0.159230
  18 C :   -0.289966
  19 C :    0.275137
  20 C :    0.033333
  21 C :   -0.225605
  22 C :   -0.206226
  23 C :   -0.146535
  24 C :   -0.340191
  25 C :    0.264130
  26 O :   -0.250851
  27 C :   -0.293989
  28 N :    0.528486
  29 O :   -0.478125
  30 H :    0.101221
  31 H :    0.142205
  32 H :    0.142806
  33 H :    0.148544
  34 H :    0.162467
  35 H :    0.156966
  36 H :    0.156297
  37 H :    0.161321
  38 O :   -0.478064
  39 H :    0.156648
  40 H :    0.171366
  41 N :   -0.100502
  42 C :   -0.326831
  43 H :    0.117605
  44 H :    0.139545
  45 H :    0.146034
  46 C :   -0.326178
  47 H :    0.142264
  48 H :    0.142758
  49 H :    0.118186
Sum of atomic charges:   -0.0000000

LOEWDIN ATOMIC CHARGES
----------------------
   0 C :   -0.109758
   1 C :   -0.168391
   2 C :   -0.128122
   3 N :    0.303922
   4 C :   -0.133626
   5 C :   -0.145229
   6 C :   -0.153167
   7 C :   -0.488499
   8 O :    0.090366
   9 O :    0.285200
  10 C :   -0.300033
  11 H :    0.162508
  12 H :    0.167409
  13 H :    0.169959
  14 H :    0.161239
  15 H :    0.188878
  16 H :    0.123635
  17 H :    0.120604
  18 C :   -0.285841
  19 C :   -0.141076
  20 C :   -0.108494
  21 C :   -0.118420
  22 C :   -0.170582
  23 C :   -0.150054
  24 C :   -0.142471
  25 C :   -0.238704
  26 O :    0.269835
  27 C :   -0.331008
  28 N :   -0.056034
  29 O :   -0.137197
  30 H :    0.181771
  31 H :    0.158721
  32 H :    0.150897
  33 H :    0.153349
  34 H :    0.160110
  35 H :    0.119473
  36 H :    0.118011
  37 H :    0.122572
  38 O :   -0.145874
  39 H :    0.119933
  40 H :    0.160372
  41 N :    0.098817
  42 C :   -0.316759
  43 H :    0.106120
  44 H :    0.120897
  45 H :    0.126482
  46 C :   -0.322434
  47 H :    0.121743
  48 H :    0.122851
  49 H :    0.106098

  Mayer bond orders larger than 0.100000
B(  0-C ,  1-C ) :   1.2347 B(  0-C ,  5-C ) :   1.6131 B(  0-C , 11-H ) :   0.9547
B(  1-C ,  2-C ) :   1.5603 B(  1-C , 40-H ) :   0.9584 B(  2-C ,  3-N ) :   1.2199
B(  2-C , 12-H ) :   0.9443 B(  3-N ,  4-C ) :   1.1524 B(  3-N ,  6-C ) :   0.9424
B(  4-C ,  5-C ) :   1.1839 B(  4-C , 13-H ) :   0.9154 B(  4-C , 18-C ) :   0.4193
B(  5-C , 14-H ) :   0.9586 B(  6-C ,  7-C ) :   0.9744 B(  6-C , 15-H ) :   0.9057
B(  6-C , 19-C ) :   0.9924 B(  7-C ,  8-O ) :   2.0120 B(  7-C ,  9-O ) :   1.2578
B(  9-O , 10-C ) :   0.8843 B( 10-C , 16-H ) :   0.9646 B( 10-C , 17-H ) :   0.9624
B( 10-C , 39-H ) :   0.9687 B( 18-C , 19-C ) :   0.9376 B( 18-C , 20-C ) :   0.1057
B( 18-C , 28-N ) :   1.1627 B( 18-C , 29-O ) :   0.1280 B( 18-C , 41-N ) :   1.1441
B( 19-C , 20-C ) :   0.7197 B( 19-C , 30-H ) :   0.8969 B( 20-C , 21-C ) :   1.3723
B( 20-C , 25-C ) :   1.2280 B( 21-C , 22-C ) :   1.3918 B( 21-C , 31-H ) :   0.9771
B( 22-C , 23-C ) :   1.4071 B( 22-C , 32-H ) :   0.9876 B( 23-C , 24-C ) :   1.3814
B( 23-C , 33-H ) :   0.9723 B( 24-C , 25-C ) :   1.3954 B( 24-C , 34-H ) :   0.9645
B( 25-C , 26-O ) :   1.0849 B( 26-O , 27-C ) :   0.9240 B( 27-C , 35-H ) :   0.9612
B( 27-C , 36-H ) :   0.9621 B( 27-C , 37-H ) :   0.9648 B( 28-N , 29-O ) :   1.4012
B( 28-N , 38-O ) :   1.4191 B( 29-O , 38-O ) :   0.1016 B( 41-N , 42-C ) :   0.9552
B( 41-N , 46-C ) :   0.9428 B( 42-C , 43-H ) :   0.9586 B( 42-C , 44-H ) :   0.9669
B( 42-C , 45-H ) :   0.9646 B( 46-C , 47-H ) :   0.9646 B( 46-C , 48-H ) :   0.9636
B( 46-C , 49-H ) :   0.9593

Dispersion correction           -0.069314480
FINAL SINGLE POINT ENERGY     -1277.192548214591

DIPOLE MOMENT
-------------
                                X             Y             Z
Electronic contribution:      7.59899       5.90124      -9.38494
Nuclear contribution   :     -9.89164      -3.61978      10.72358
                        -----------------------------------------
Total Dipole Moment    :     -2.29265       2.28145       1.33864
                        -----------------------------------------
Magnitude (a.u.)       :      3.50046
Magnitude (Debye)      :      8.89746

Dispersion correction in the Hessian             ... done   (      0.7 sec)

VIBRATIONAL FREQUENCIES
-----------------------

Scaling factor for frequencies =  1.000000000  (already applied!)

   0:         0.00 cm**-1
   1:         0.00 cm**-1
   2:         0.00 cm**-1
   3:         0.00 cm**-1
   4:         0.00 cm**-1
   5:         0.00 cm**-1
   6:      -273.08 cm**-1 ***imaginary mode***
   7:        31.01 cm**-1
   8:        51.51 cm**-1
   9:        65.53 cm**-1
  10:        77.71 cm**-1
  11:        81.78 cm**-1
  12:        88.12 cm**-1
  13:        93.07 cm**-1
  14:       105.59 cm**-1
  15:       114.45 cm**-1
  16:       121.77 cm**-1
  17:       130.98 cm**-1
  18:       142.41 cm**-1
  19:       150.63 cm**-1
  20:       157.39 cm**-1
  21:       164.24 cm**-1
  22:       184.48 cm**-1
  23:       198.37 cm**-1
  24:       201.13 cm**-1
  25:       212.12 cm**-1
  26:       227.27 cm**-1
  27:       244.75 cm**-1
  28:       253.56 cm**-1
  29:       267.27 cm**-1
  30:       293.41 cm**-1
  31:       295.61 cm**-1
  32:       308.64 cm**-1
  33:       330.11 cm**-1
  34:       364.31 cm**-1
  35:       399.85 cm**-1
  36:       414.21 cm**-1
  37:       423.64 cm**-1
  38:       454.60 cm**-1
  39:       481.56 cm**-1
  40:       496.58 cm**-1
  41:       514.99 cm**-1
  42:       552.97 cm**-1
  43:       566.69 cm**-1
  44:       585.01 cm**-1
  45:       594.42 cm**-1
  46:       621.96 cm**-1
  47:       638.85 cm**-1
  48:       648.21 cm**-1
  49:       672.45 cm**-1
  50:       706.01 cm**-1
  51:       718.13 cm**-1
  52:       753.27 cm**-1
  53:       763.77 cm**-1
  54:       767.13 cm**-1
  55:       779.24 cm**-1
  56:       791.67 cm**-1
  57:       815.49 cm**-1
  58:       824.18 cm**-1
  59:       840.44 cm**-1
  60:       868.97 cm**-1
  61:       878.80 cm**-1
  62:       901.79 cm**-1
  63:       936.09 cm**-1
  64:       953.56 cm**-1
  65:       957.73 cm**-1
  66:       972.05 cm**-1
  67:       984.28 cm**-1
  68:      1001.79 cm**-1
  69:      1007.38 cm**-1
  70:      1013.51 cm**-1
  71:      1050.08 cm**-1
  72:      1056.11 cm**-1
  73:      1071.54 cm**-1
  74:      1072.43 cm**-1
  75:      1081.84 cm**-1
  76:      1087.69 cm**-1
  77:      1101.53 cm**-1
  78:      1108.73 cm**-1
  79:      1124.51 cm**-1
  80:      1148.18 cm**-1
  81:      1157.06 cm**-1
  82:      1170.97 cm**-1
  83:      1171.45 cm**-1
  84:      1173.49 cm**-1
  85:      1174.70 cm**-1
  86:      1193.51 cm**-1
  87:      1205.58 cm**-1
  88:      1207.56 cm**-1
  89:      1211.98 cm**-1
  90:      1226.57 cm**-1
  91:      1235.32 cm**-1
  92:      1250.01 cm**-1
  93:      1256.69 cm**-1
  94:      1260.68 cm**-1
  95:      1278.31 cm**-1
  96:      1306.25 cm**-1
  97:      1328.28 cm**-1
  98:      1338.42 cm**-1
  99:      1349.50 cm**-1
 100:      1369.35 cm**-1
 101:      1375.17 cm**-1
 102:      1380.32 cm**-1
 103:      1388.94 cm**-1
 104:      1420.02 cm**-1
 105:      1423.86 cm**-1
 106:      1450.92 cm**-1
 107:      1458.08 cm**-1
 108:      1464.98 cm**-1
 109:      1465.40 cm**-1
 110:      1467.45 cm**-1
 111:      1469.18 cm**-1
 112:      1472.35 cm**-1
 113:      1474.25 cm**-1
 114:      1481.40 cm**-1
 115:      1482.49 cm**-1
 116:      1486.01 cm**-1
 117:      1496.29 cm**-1
 118:      1498.16 cm**-1
 119:      1503.62 cm**-1
 120:      1519.06 cm**-1
 121:      1542.52 cm**-1
 122:      1605.22 cm**-1
 123:      1651.07 cm**-1
 124:      1663.86 cm**-1
 125:      1683.74 cm**-1
 126:      1790.97 cm**-1
 127:      2992.31 cm**-1
 128:      3002.97 cm**-1
 129:      3038.16 cm**-1
 130:      3072.50 cm**-1
 131:      3077.14 cm**-1
 132:      3085.68 cm**-1
 133:      3106.10 cm**-1
 134:      3110.47 cm**-1
 135:      3119.65 cm**-1
 136:      3133.32 cm**-1
 137:      3144.67 cm**-1
 138:      3156.87 cm**-1
 139:      3162.69 cm**-1
 140:      3182.54 cm**-1
 141:      3190.15 cm**-1
 142:      3194.28 cm**-1
 143:      3205.89 cm**-1
 144:      3212.16 cm**-1
 145:      3212.64 cm**-1
 146:      3229.86 cm**-1
 147:      3231.85 cm**-1
 148:      3238.06 cm**-1
 149:      3249.61 cm**-1

IR SPECTRUM
-----------

 Mode   freq       eps      Int      T**2         TX        TY        TZ
       cm**-1   L/(mol*cm) km/mol    a.u.
----------------------------------------------------------------------------
  7:     31.01   0.000091    0.46  0.000919  ( 0.005639  0.024918 -0.016330)
  8:     51.51   0.000160    0.81  0.000967  ( 0.012345  0.003742  0.028302)
  9:     65.53   0.000661    3.34  0.003146  (-0.011723  0.050835 -0.020599)
 10:     77.71   0.000650    3.29  0.002611  ( 0.038345  0.024220 -0.023544)
 11:     81.78   0.000099    0.50  0.000378  ( 0.003394 -0.002136  0.019028)
 12:     88.12   0.000528    2.67  0.001870  (-0.015573 -0.017617  0.036298)
 13:     93.07   0.001225    6.19  0.004108  ( 0.043111 -0.034984  0.032022)
 14:    105.59   0.000942    4.76  0.002783  ( 0.000531  0.048003  0.021881)
 15:    114.45   0.001593    8.05  0.004345  ( 0.041847  0.029659  0.041398)
 16:    121.77   0.000596    3.01  0.001528  (-0.003311  0.038857  0.002670)
 17:    130.98   0.000115    0.58  0.000275  ( 0.006974  0.014137  0.005153)
 18:    142.41   0.000512    2.59  0.001122  ( 0.022361  0.020317 -0.014456)
 19:    150.63   0.000065    0.33  0.000134  ( 0.009560 -0.001495 -0.006327)
 20:    157.39   0.002149   10.86  0.004262  (-0.041304 -0.038880 -0.032312)
 21:    164.24   0.000772    3.90  0.001467  ( 0.032056 -0.006079 -0.020066)
 22:    184.48   0.003461   17.49  0.005854  (-0.012852  0.075019  0.007799)
 23:    198.37   0.001503    7.60  0.002365  ( 0.007741  0.039767  0.026897)
 24:    201.13   0.000363    1.83  0.000563  (-0.014815  0.013766 -0.012395)
 25:    212.12   0.001221    6.17  0.001797  (-0.003644  0.034412  0.024481)
 26:    227.27   0.001415    7.15  0.001943  (-0.002280 -0.021561  0.038385)
 27:    244.75   0.001674    8.46  0.002135  (-0.039552 -0.021102  0.011176)
 28:    253.56   0.003575   18.07  0.004401  ( 0.042267  0.048078 -0.017394)
 29:    267.27   0.003811   19.26  0.004449  (-0.057703 -0.018151 -0.028109)
 30:    293.41   0.002667   13.48  0.002836  ( 0.032566 -0.041333 -0.008215)
 31:    295.61   0.001062    5.37  0.001121  (-0.013010 -0.028861 -0.010912)
 32:    308.64   0.000249    1.26  0.000252  (-0.012783  0.009374 -0.000663)
 33:    330.11   0.000884    4.47  0.000836  ( 0.025828  0.012452  0.003679)
 34:    364.31   0.006974   35.24  0.005974  (-0.038624  0.065526  0.013717)
 35:    399.85   0.005572   28.16  0.004349  (-0.010995 -0.061882 -0.019968)
 36:    414.21   0.002056   10.39  0.001549  (-0.037165  0.005851 -0.011544)
 37:    423.64   0.015051   76.06  0.011087  ( 0.022191  0.093058  0.043985)
 38:    454.60   0.010106   51.07  0.006937  (-0.008373  0.072458  0.040209)
 39:    481.56   0.000902    4.56  0.000584  ( 0.000315  0.023959  0.003211)
 40:    496.58   0.007713   38.98  0.004847  ( 0.002490 -0.065390 -0.023768)
 41:    514.99   0.006629   33.50  0.004017  ( 0.013508  0.058999  0.018798)
 42:    552.97   0.006494   32.82  0.003665  (-0.010416 -0.056534  0.018978)
 43:    566.69   0.007376   37.27  0.004062  (-0.045417 -0.044312 -0.005945)
 44:    585.01   0.005272   26.64  0.002812  ( 0.031656 -0.031798  0.028269)
 45:    594.42   0.001862    9.41  0.000978  ( 0.021317 -0.003480 -0.022609)
 46:    621.96   0.003148   15.91  0.001580  (-0.035694  0.002634 -0.017281)
 47:    638.85   0.006665   33.68  0.003256  (-0.028381 -0.047790 -0.012905)
 48:    648.21   0.008305   41.97  0.003998  (-0.005176  0.059967  0.019374)
 49:    672.45   0.007487   37.84  0.003474  ( 0.026152 -0.052178 -0.008249)
 50:    706.01   0.024911  125.89  0.011011  (-0.025245  0.089876  0.047913)
 51:    718.13   0.038529  194.71  0.016743  ( 0.009401  0.121629  0.043135)
 52:    753.27   0.006476   32.73  0.002683  (-0.017284 -0.019059 -0.044954)
 53:    763.77   0.002403   12.15  0.000982  ( 0.008008  0.017727  0.024569)
 54:    767.13   0.029529  149.22  0.012012  (-0.020959  0.106106 -0.017726)
 55:    779.24   0.001637    8.27  0.000655  (-0.014394  0.000140 -0.021171)
 56:    791.67   0.002483   12.55  0.000979  (-0.001674  0.019612  0.024317)
 57:    815.49   0.005834   29.48  0.002232  ( 0.033357 -0.030766 -0.013156)
 58:    824.18   0.001761    8.90  0.000667  (-0.016292 -0.002666 -0.019853)
 59:    840.44   0.004633   23.41  0.001720  ( 0.017351  0.035023  0.013880)
 60:    868.97   0.004266   21.56  0.001532  ( 0.015386  0.032063  0.016344)
 61:    878.80   0.004003   20.23  0.001421  (-0.027429 -0.013408 -0.022121)
 62:    901.79   0.005523   27.91  0.001911  ( 0.032431 -0.023044 -0.018120)
 63:    936.09   0.012567   63.51  0.004190  (-0.016052 -0.062557 -0.004299)
 64:    953.56   0.005119   25.87  0.001675  ( 0.012759 -0.036186 -0.014255)
 65:    957.73   0.004049   20.46  0.001319  (-0.003065  0.014152  0.033310)
 66:    972.05   0.001909    9.65  0.000613  (-0.004845  0.020930  0.012300)
 67:    984.28   0.000186    0.94  0.000059  ( 0.001947 -0.007427 -0.000183)
 68:   1001.79   0.001843    9.31  0.000574  ( 0.019906  0.013243 -0.001574)
 69:   1007.38   0.034723  175.47  0.010756  (-0.006188  0.102814  0.012132)
 70:   1013.51   0.000318    1.61  0.000098  (-0.005498  0.006961  0.004373)
 71:   1050.08   0.009405   47.53  0.002795  ( 0.038432 -0.033528 -0.013919)
 72:   1056.11   0.002506   12.66  0.000740  ( 0.016915 -0.000499 -0.021308)
 73:   1071.54   0.003505   17.71  0.001021  ( 0.030136 -0.003277 -0.010091)
 74:   1072.43   0.010601   53.57  0.003085  (-0.011191  0.020353  0.050452)
 75:   1081.84   0.007577   38.29  0.002185  ( 0.022900  0.040080 -0.007396)
 76:   1087.69   0.011610   58.67  0.003331  ( 0.015525  0.031715  0.045650)
 77:   1101.53   0.000151    0.76  0.000043  ( 0.006304  0.000828  0.001510)
 78:   1108.73   0.003201   16.18  0.000901  (-0.010035  0.012886 -0.025182)
 79:   1124.51   0.002642   13.35  0.000733  ( 0.025265 -0.006833  0.006944)
 80:   1148.18   0.016756   84.68  0.004554  (-0.016149  0.022733  0.061453)
 81:   1157.06   0.000830    4.19  0.000224  (-0.007177 -0.008217  0.010235)
 82:   1170.97   0.000276    1.40  0.000074  ( 0.003515 -0.007489  0.002270)
 83:   1171.45   0.000277    1.40  0.000074  ( 0.000261  0.006544 -0.005553)
 84:   1173.49   0.001049    5.30  0.000279  (-0.005531  0.003114  0.015449)
 85:   1174.70   0.004458   22.53  0.001184  ( 0.017314 -0.029704  0.001480)
 86:   1193.51   0.015973   80.72  0.004176  (-0.041270  0.002244  0.049680)
 87:   1205.58   0.010319   52.15  0.002671  (-0.048488  0.015637 -0.008681)
 88:   1207.56   0.005151   26.03  0.001331  (-0.019683  0.025998  0.016363)
 89:   1211.98   0.006413   32.41  0.001651  ( 0.039421  0.001911 -0.009670)
 90:   1226.57   0.008774   44.34  0.002232  (-0.001627 -0.046209 -0.009711)
 91:   1235.32   0.040291  203.61  0.010178  (-0.075765  0.066068 -0.008537)
 92:   1250.01   0.005173   26.14  0.001291  (-0.009353  0.034696 -0.000265)
 93:   1256.69   0.005718   28.90  0.001420  ( 0.033795 -0.016166  0.004053)
 94:   1260.68   0.083870  423.84  0.020761  ( 0.121524 -0.077029  0.007687)
 95:   1278.31   0.012644   63.90  0.003087  (-0.039067  0.028874  0.026960)
 96:   1306.25   0.067549  341.36  0.016138  ( 0.064558  0.056079  0.093941)
 97:   1328.28   0.012227   61.79  0.002873  ( 0.034902 -0.009526  0.039544)
 98:   1338.42   0.014329   72.41  0.003341  (-0.044757 -0.022342 -0.028959)
 99:   1349.50   0.093266  471.33  0.021567  (-0.033826  0.115283  0.084455)
100:   1369.35   0.027066  136.78  0.006168  ( 0.065472 -0.043266  0.003115)
101:   1375.17   0.031510  159.24  0.007151  (-0.010236  0.077538 -0.032150)
102:   1380.32   0.009726   49.15  0.002199  ( 0.011412  0.033871  0.030355)
103:   1388.94   0.003599   18.19  0.000809  ( 0.018121  0.006106 -0.021045)
104:   1420.02   0.007312   36.95  0.001607  (-0.013540  0.014651  0.034770)
105:   1423.86   0.000529    2.67  0.000116  (-0.010369  0.000783  0.002790)
106:   1450.92   0.032969  166.61  0.007091  (-0.024628  0.066263 -0.045758)
107:   1458.08   0.005515   27.87  0.001180  (-0.026397  0.015513 -0.015588)
108:   1464.98   0.005056   25.55  0.001077  (-0.000344 -0.025830 -0.020241)
109:   1465.40   0.004932   24.92  0.001050  ( 0.006659 -0.030570  0.008447)
110:   1467.45   0.010897   55.07  0.002317  ( 0.044184 -0.017633 -0.007360)
111:   1469.18   0.007455   37.67  0.001583  ( 0.039434 -0.002491 -0.004704)
112:   1472.35   0.003626   18.32  0.000768  (-0.017189  0.014672 -0.016053)
113:   1474.25   0.002464   12.45  0.000521  (-0.002591 -0.010217 -0.020258)
114:   1481.40   0.063709  321.96  0.013421  ( 0.013854 -0.075597  0.086682)
115:   1482.49   0.005885   29.74  0.001239  ( 0.014157  0.031803 -0.005190)
116:   1486.01   0.014814   74.87  0.003111  ( 0.001721  0.052939 -0.017478)
117:   1496.29   0.011221   56.71  0.002340  ( 0.034927  0.025978 -0.021107)
118:   1498.16   0.014648   74.03  0.003051  ( 0.031917  0.024649  0.037749)
119:   1503.62   0.002200   11.12  0.000457  (-0.018724  0.005852  0.008476)
120:   1519.06   0.002098   10.60  0.000431  ( 0.012564  0.010173 -0.013026)
121:   1542.52   0.034371  173.70  0.006953  (-0.051320 -0.036121 -0.054910)
122:   1605.22   0.035022  176.99  0.006808  (-0.029631 -0.066670  0.038541)
123:   1651.07   0.007793   39.38  0.001473  (-0.005928 -0.015423 -0.034639)
124:   1663.86   0.010227   51.69  0.001918  (-0.031622 -0.021107 -0.021742)
125:   1683.74   0.039217  198.19  0.007269  (-0.082340 -0.015449 -0.015811)
126:   1790.97   0.103763  524.37  0.018080  ( 0.065691  0.082357  0.083558)
127:   2992.31   0.020994  106.10  0.002189  ( 0.004241  0.041445  0.021303)
128:   3002.97   0.029484  149.00  0.003064  (-0.034237  0.035534 -0.025082)
129:   3038.16   0.013198   66.70  0.001356  (-0.010285  0.010447  0.033774)
130:   3072.50   0.005943   30.03  0.000604  ( 0.017386 -0.016283 -0.006016)
131:   3077.14   0.013844   69.96  0.001404  (-0.032996 -0.008850  0.015391)
132:   3085.68   0.007850   39.67  0.000794  (-0.018804 -0.001689  0.020916)
133:   3106.10   0.001361    6.88  0.000137  ( 0.001404 -0.009365 -0.006860)
134:   3110.47   0.007695   38.89  0.000772  ( 0.008483 -0.024283  0.010505)
135:   3119.65   0.000952    4.81  0.000095  ( 0.009347 -0.002069  0.001900)
136:   3133.32   0.005471   27.65  0.000545  (-0.003690  0.009862 -0.020832)
137:   3144.67   0.007555   38.18  0.000750  ( 0.005541  0.026478  0.004234)
138:   3156.87   0.003742   18.91  0.000370  ( 0.004800  0.013460 -0.012872)
139:   3162.69   0.003844   19.42  0.000379  (-0.016487 -0.008364 -0.006121)
140:   3182.54   0.001300    6.57  0.000127  (-0.006399  0.001511  0.009179)
141:   3190.15   0.002039   10.31  0.000200  ( 0.010729  0.003375  0.008544)
142:   3194.28   0.001899    9.60  0.000186  ( 0.010725  0.000434 -0.008384)
143:   3205.89   0.001539    7.78  0.000150  (-0.011277  0.002093 -0.004271)
144:   3212.16   0.004087   20.65  0.000397  ( 0.015740  0.007144  0.009914)
145:   3212.64   0.006165   31.15  0.000599  (-0.018949  0.009430  0.012282)
146:   3229.86   0.000506    2.56  0.000049  ( 0.003712 -0.000946 -0.005852)
147:   3231.85   0.000527    2.66  0.000051  (-0.005149 -0.000584 -0.004901)
148:   3238.06   0.000243    1.23  0.000023  ( 0.004770 -0.000575  0.000568)
149:   3249.61   0.000010    0.05  0.000001  (-0.000336 -0.000762 -0.000548)

--------------------------
THERMOCHEMISTRY AT 298.15K
--------------------------

Temperature         ... 298.15 K
Pressure            ... 1.00 atm
Total Mass          ... 373.41 AMU

Throughout the following assumptions are being made:
  (1) The electronic state is orbitally nondegenerate
  (2) There are no thermally accessible electronically excited states
  (3) Hindered rotations indicated by low frequency modes are not
      treated as such but are treated as vibrations and this may
      cause some error
  (4) All equations used are the standard statistical mechanics
      equations for an ideal gas
  (5) All vibrations are strictly harmonic

freq.      31.01  E(vib)   ...       0.55
freq.      51.51  E(vib)   ...       0.52
freq.      65.53  E(vib)   ...       0.50
freq.      77.71  E(vib)   ...       0.49
freq.      81.78  E(vib)   ...       0.48
freq.      88.12  E(vib)   ...       0.48
freq.      93.07  E(vib)   ...       0.47
freq.     105.59  E(vib)   ...       0.45
freq.     114.45  E(vib)   ...       0.44
freq.     121.77  E(vib)   ...       0.44
freq.     130.98  E(vib)   ...       0.42
freq.     142.41  E(vib)   ...       0.41
freq.     150.63  E(vib)   ...       0.40
freq.     157.39  E(vib)   ...       0.40
freq.     164.24  E(vib)   ...       0.39
freq.     184.48  E(vib)   ...       0.37
freq.     198.37  E(vib)   ...       0.35
freq.     201.13  E(vib)   ...       0.35
freq.     212.12  E(vib)   ...       0.34
freq.     227.27  E(vib)   ...       0.33
freq.     244.75  E(vib)   ...       0.31
freq.     253.56  E(vib)   ...       0.30
freq.     267.27  E(vib)   ...       0.29
freq.     293.41  E(vib)   ...       0.27
freq.     295.61  E(vib)   ...       0.27
freq.     308.64  E(vib)   ...       0.26
freq.     330.11  E(vib)   ...       0.24
freq.     364.31  E(vib)   ...       0.22
freq.     399.85  E(vib)   ...       0.19
freq.     414.21  E(vib)   ...       0.19
freq.     423.64  E(vib)   ...       0.18
freq.     454.60  E(vib)   ...       0.16
freq.     481.56  E(vib)   ...       0.15
freq.     496.58  E(vib)   ...       0.14
freq.     514.99  E(vib)   ...       0.13
freq.     552.97  E(vib)   ...       0.12
freq.     566.69  E(vib)   ...       0.11
freq.     585.01  E(vib)   ...       0.11
freq.     594.42  E(vib)   ...       0.10
freq.     621.96  E(vib)   ...       0.09
freq.     638.85  E(vib)   ...       0.09
freq.     648.21  E(vib)   ...       0.08
freq.     672.45  E(vib)   ...       0.08
freq.     706.01  E(vib)   ...       0.07
freq.     718.13  E(vib)   ...       0.07
freq.     753.27  E(vib)   ...       0.06
freq.     763.77  E(vib)   ...       0.06
freq.     767.13  E(vib)   ...       0.06
freq.     779.24  E(vib)   ...       0.05
freq.     791.67  E(vib)   ...       0.05
freq.     815.49  E(vib)   ...       0.05
freq.     824.18  E(vib)   ...       0.05
freq.     840.44  E(vib)   ...       0.04
freq.     868.97  E(vib)   ...       0.04
freq.     878.80  E(vib)   ...       0.04
freq.     901.79  E(vib)   ...       0.03
freq.     936.09  E(vib)   ...       0.03
freq.     953.56  E(vib)   ...       0.03
freq.     957.73  E(vib)   ...       0.03
freq.     972.05  E(vib)   ...       0.03
freq.     984.28  E(vib)   ...       0.02
freq.    1001.79  E(vib)   ...       0.02
freq.    1007.38  E(vib)   ...       0.02
freq.    1013.51  E(vib)   ...       0.02
freq.    1050.08  E(vib)   ...       0.02
freq.    1056.11  E(vib)   ...       0.02
freq.    1071.54  E(vib)   ...       0.02
freq.    1072.43  E(vib)   ...       0.02
freq.    1081.84  E(vib)   ...       0.02
freq.    1087.69  E(vib)   ...       0.02
freq.    1101.53  E(vib)   ...       0.02
freq.    1108.73  E(vib)   ...       0.02
freq.    1124.51  E(vib)   ...       0.01
freq.    1148.18  E(vib)   ...       0.01
freq.    1157.06  E(vib)   ...       0.01
freq.    1170.97  E(vib)   ...       0.01
freq.    1171.45  E(vib)   ...       0.01
freq.    1173.49  E(vib)   ...       0.01
freq.    1174.70  E(vib)   ...       0.01
freq.    1193.51  E(vib)   ...       0.01
freq.    1205.58  E(vib)   ...       0.01
freq.    1207.56  E(vib)   ...       0.01
freq.    1211.98  E(vib)   ...       0.01
freq.    1226.57  E(vib)   ...       0.01
freq.    1235.32  E(vib)   ...       0.01
freq.    1250.01  E(vib)   ...       0.01
freq.    1256.69  E(vib)   ...       0.01
freq.    1260.68  E(vib)   ...       0.01
freq.    1278.31  E(vib)   ...       0.01
freq.    1306.25  E(vib)   ...       0.01
freq.    1328.28  E(vib)   ...       0.01
freq.    1338.42  E(vib)   ...       0.01
freq.    1349.50  E(vib)   ...       0.01
freq.    1369.35  E(vib)   ...       0.01
freq.    1375.17  E(vib)   ...       0.01
freq.    1380.32  E(vib)   ...       0.01
freq.    1388.94  E(vib)   ...       0.00
freq.    1420.02  E(vib)   ...       0.00
freq.    1423.86  E(vib)   ...       0.00
freq.    1450.92  E(vib)   ...       0.00
freq.    1458.08  E(vib)   ...       0.00
freq.    1464.98  E(vib)   ...       0.00
freq.    1465.40  E(vib)   ...       0.00
freq.    1467.45  E(vib)   ...       0.00
freq.    1469.18  E(vib)   ...       0.00
freq.    1472.35  E(vib)   ...       0.00
freq.    1474.25  E(vib)   ...       0.00
freq.    1481.40  E(vib)   ...       0.00
freq.    1482.49  E(vib)   ...       0.00
freq.    1486.01  E(vib)   ...       0.00
freq.    1496.29  E(vib)   ...       0.00
freq.    1498.16  E(vib)   ...       0.00
freq.    1503.62  E(vib)   ...       0.00
freq.    1519.06  E(vib)   ...       0.00
freq.    1542.52  E(vib)   ...       0.00
freq.    1605.22  E(vib)   ...       0.00
freq.    1651.07  E(vib)   ...       0.00
freq.    1663.86  E(vib)   ...       0.00
freq.    1683.74  E(vib)   ...       0.00
freq.    1790.97  E(vib)   ...       0.00
freq.    2992.31  E(vib)   ...       0.00
freq.    3002.97  E(vib)   ...       0.00
freq.    3038.16  E(vib)   ...       0.00
freq.    3072.50  E(vib)   ...       0.00
freq.    3077.14  E(vib)   ...       0.00
freq.    3085.68  E(vib)   ...       0.00
freq.    3106.10  E(vib)   ...       0.00
freq.    3110.47  E(vib)   ...       0.00
freq.    3119.65  E(vib)   ...       0.00
freq.    3133.32  E(vib)   ...       0.00
freq.    3144.67  E(vib)   ...       0.00
freq.    3156.87  E(vib)   ...       0.00
freq.    3162.69  E(vib)   ...       0.00
freq.    3182.54  E(vib)   ...       0.00
freq.    3190.15  E(vib)   ...       0.00
freq.    3194.28  E(vib)   ...       0.00
freq.    3205.89  E(vib)   ...       0.00
freq.    3212.16  E(vib)   ...       0.00
freq.    3212.64  E(vib)   ...       0.00
freq.    3229.86  E(vib)   ...       0.00
freq.    3231.85  E(vib)   ...       0.00
freq.    3238.06  E(vib)   ...       0.00
freq.    3249.61  E(vib)   ...       0.00

Rotational constants in cm-1:     0.010089     0.006684     0.005317

                             ****ORCA TERMINATED NORMALLY****
TOTAL RUN TIME: 0 days 1 hours 59 minutes 3 seconds 344 msec
