                         Program Version 5.0.4 -  RELEASE  -
|  1> %pal nprocs 24 end
|  2> %maxcore 3500
|  3> !PBE0 D3BJ def2-TZVP TightOpt TightSCF OPTTS FREQ
|  4> !CPCM(dmso)
|  5> %scf
|  6> MaxIter 800
|  7> end
|  8> %geom
|  9> MaxIter 800
| 10> MaxStep 0.2
| 11> inHess Read
| 12> InHessName "TS1_CHCH2-preopt.hess"
| 13> end
| 14> *xyz 0 1
| 15>   C      3.898606   -1.223850    0.997536
| 16>   C      4.212658   -0.226291    0.046802
| 17>   C      3.200372    0.526784   -0.457732
| 18>   N      1.931559    0.376302   -0.019193
| 19>   C      1.576049   -0.592180    0.888130
| 20>   C      2.616518   -1.390054    1.430698
| 21>   C      0.804067    0.961237   -0.698651
| 22>   C      0.332431    2.204419    0.036686
| 23>   O      0.837120    2.640153    1.039179
| 24>   O     -0.635767    2.799183   -0.639539
| 25>   C     -1.168348    3.995568   -0.063181
| 26>   H      4.691401   -1.835672    1.412426
| 27>   H      3.342215    1.273851   -1.227845
| 28>   H      0.712750   -0.357529    1.495972
| 29>   H      2.364657   -2.107757    2.199533
| 30>   H      1.149894    1.323143   -1.668317
| 31>   H     -1.950775    4.324248   -0.741776
| 32>   H     -0.390072    4.753915    0.020196
| 33>   C      0.249062   -1.509985   -0.376077
| 34>   C     -0.253920   -0.204691   -0.980547
| 35>   C     -1.702985    0.110979   -0.711627
| 36>   C     -2.605806    0.008930   -1.760246
| 37>   C     -3.958280    0.276818   -1.593276
| 38>   C     -4.422087    0.660811   -0.347257
| 39>   C     -3.545087    0.772418    0.723850
| 40>   C     -2.196498    0.496922    0.541510
| 41>   O     -1.278431    0.578574    1.529429
| 42>   C     -1.687896    1.023053    2.809249
| 43>   N      1.195592   -2.144050   -1.188316
| 44>   O      1.685121   -1.508173   -2.138124
| 45>   H     -0.187264   -0.341193   -2.058043
| 46>   H     -2.233191   -0.285442   -2.735928
| 47>   H     -4.637777    0.188711   -2.432356
| 48>   H     -5.473320    0.877938   -0.195771
| 49>   H     -3.916611    1.072423    1.694322
| 50>   H     -0.787295    1.047447    3.419140
| 51>   H     -2.411512    0.332473    3.250003
| 52>   H     -2.121010    2.025160    2.755957
| 53>   O      1.605486   -3.271640   -0.892938
| 54>   H     -1.583658    3.782912    0.921960
| 55>   H      5.224803   -0.065240   -0.294957
| 56>   C     -0.607027   -2.320482    0.478295
| 57>   H     -1.497188   -1.789766    0.793666
| 58>   C     -0.452535   -3.556364    0.964696
| 59>   H      0.397347   -4.181272    0.738534
| 60>   H     -1.222936   -3.956306    1.614735
| 61>
| 62> **                         ****END OF INPUT****
 Total Charge           Charge          ....    0
 Multiplicity           Mult            ....    1
 Number of Electrons    NEL             ....  188
Dispersion correction           -0.063146216
FINAL SINGLE POINT ENERGY     -1220.667693473112
Dispersion correction            ... done
Dispersion correction           -0.062910901
FINAL SINGLE POINT ENERGY     -1220.667288808207
Dispersion correction            ... done
Dispersion correction           -0.062947024
FINAL SINGLE POINT ENERGY     -1220.667275378568
Dispersion correction            ... done
Dispersion correction           -0.062950533
FINAL SINGLE POINT ENERGY     -1220.667276958590
Dispersion correction            ... done
                    ***********************HURRAY********************

CARTESIAN COORDINATES (ANGSTROEM)
---------------------------------
  C      3.896741   -1.242397    0.968488
  C      4.215033   -0.236320    0.021218
  C      3.207114    0.528139   -0.469969
  N      1.936737    0.385691   -0.027063
  C      1.568690   -0.601407    0.868801
  C      2.618928   -1.408343    1.402989
  C      0.808866    0.972083   -0.702158
  C      0.337171    2.214975    0.035153
  O      0.850552    2.654310    1.031538
  O     -0.640901    2.807532   -0.630100
  C     -1.172682    3.999091   -0.043434
  H      4.688539   -1.859900    1.377276
  H      3.351667    1.283978   -1.231459
  H      0.741720   -0.335324    1.516637
  H      2.367212   -2.133332    2.165256
  H      1.147659    1.335297   -1.674367
  H     -1.963494    4.327342   -0.712545
  H     -0.397204    4.760826    0.035843
  C      0.267909   -1.489819   -0.341138
  C     -0.246793   -0.197251   -0.972959
  C     -1.697711    0.116713   -0.714677
  C     -2.593946    0.011980   -1.769024
  C     -3.948658    0.274564   -1.609556
  C     -4.421127    0.654492   -0.365369
  C     -3.550378    0.770591    0.710944
  C     -2.198885    0.503174    0.535764
  O     -1.285219    0.591205    1.527325
  C     -1.708670    1.008550    2.811737
  N      1.195448   -2.152825   -1.176097
  O      1.659068   -1.541330   -2.148463
  H     -0.177072   -0.352590   -2.047277
  H     -2.214566   -0.281290   -2.742524
  H     -4.623005    0.184511   -2.452639
  H     -5.474493    0.864970   -0.219247
  H     -3.929369    1.067384    1.679619
  H     -0.813405    1.028922    3.429567
  H     -2.430125    0.303743    3.233427
  H     -2.150248    2.007772    2.773789
  O      1.608202   -3.268976   -0.859932
  H     -1.576649    3.780588    0.945247
  H      5.227384   -0.079058   -0.321620
  C     -0.605558   -2.301972    0.503637
  H     -1.505273   -1.774895    0.796514
  C     -0.449448   -3.530944    1.002645
  H      0.409697   -4.151027    0.798694
  H     -1.229028   -3.932989    1.640313

 Multiplicity           Mult            ....    1
 Number of Electrons    NEL             ....  188
 Basis Dimension        Dim             ....  926

ORBITAL ENERGIES
----------------

  NO   OCC          E(Eh)            E(eV)
   0   2.0000     -19.265533      -524.2418
   1   2.0000     -19.250652      -523.8369
   2   2.0000     -19.215693      -522.8856
   3   2.0000     -19.213969      -522.8387
   4   2.0000     -19.204313      -522.5759
   5   2.0000     -14.592835      -397.0912
   6   2.0000     -14.459625      -393.4664
   7   2.0000     -10.363564      -282.0069
   8   2.0000     -10.297053      -280.1971
   9   2.0000     -10.295335      -280.1503
  10   2.0000     -10.291814      -280.0545
  11   2.0000     -10.282847      -279.8105
  12   2.0000     -10.281999      -279.7874
  13   2.0000     -10.271665      -279.5062
  14   2.0000     -10.268747      -279.4268
  15   2.0000     -10.262355      -279.2529
  16   2.0000     -10.248184      -278.8673
  17   2.0000     -10.241346      -278.6812
  18   2.0000     -10.235469      -278.5213
  19   2.0000     -10.231138      -278.4034
  20   2.0000     -10.230499      -278.3860
  21   2.0000     -10.230034      -278.3734
  22   2.0000     -10.227420      -278.3022
  23   2.0000     -10.227149      -278.2949
  24   2.0000     -10.222033      -278.1557
  25   2.0000     -10.211203      -277.8609
  26   2.0000      -1.241693       -33.7882
  27   2.0000      -1.156939       -31.4819
  28   2.0000      -1.113734       -30.3062
  29   2.0000      -1.065743       -29.0003
  30   2.0000      -1.059739       -28.8370
  31   2.0000      -1.041481       -28.3401
  32   2.0000      -0.902000       -24.5447
  33   2.0000      -0.878073       -23.8936
  34   2.0000      -0.864445       -23.5227
  35   2.0000      -0.816648       -22.2221
  36   2.0000      -0.810634       -22.0585
  37   2.0000      -0.788481       -21.4557
  38   2.0000      -0.781630       -21.2692
  39   2.0000      -0.774333       -21.0707
  40   2.0000      -0.748261       -20.3612
  41   2.0000      -0.725405       -19.7393
  42   2.0000      -0.705306       -19.1923
  43   2.0000      -0.679344       -18.4859
  44   2.0000      -0.658788       -17.9265
  45   2.0000      -0.638927       -17.3861
  46   2.0000      -0.631360       -17.1802
  47   2.0000      -0.614163       -16.7122
  48   2.0000      -0.601247       -16.3608
  49   2.0000      -0.581570       -15.8253
  50   2.0000      -0.566494       -15.4151
  51   2.0000      -0.557594       -15.1729
  52   2.0000      -0.552876       -15.0445
  53   2.0000      -0.542524       -14.7628
  54   2.0000      -0.531585       -14.4652
  55   2.0000      -0.529308       -14.4032
  56   2.0000      -0.519005       -14.1228
  57   2.0000      -0.513608       -13.9760
  58   2.0000      -0.510776       -13.8989
  59   2.0000      -0.499549       -13.5934
  60   2.0000      -0.497657       -13.5419
  61   2.0000      -0.489808       -13.3284
  62   2.0000      -0.485591       -13.2136
  63   2.0000      -0.475771       -12.9464
  64   2.0000      -0.469642       -12.7796
  65   2.0000      -0.462983       -12.5984
  66   2.0000      -0.459237       -12.4965
  67   2.0000      -0.455061       -12.3828
  68   2.0000      -0.442798       -12.0492
  69   2.0000      -0.433827       -11.8050
  70   2.0000      -0.423849       -11.5335
  71   2.0000      -0.418691       -11.3931
  72   2.0000      -0.407553       -11.0901
  73   2.0000      -0.400190       -10.8897
  74   2.0000      -0.396005       -10.7758
  75   2.0000      -0.389156       -10.5895
  76   2.0000      -0.381759       -10.3882
  77   2.0000      -0.378978       -10.3125
  78   2.0000      -0.376278       -10.2390
  79   2.0000      -0.374989       -10.2040
  80   2.0000      -0.366698        -9.9784
  81   2.0000      -0.350002        -9.5240
  82   2.0000      -0.345399        -9.3988
  83   2.0000      -0.340870        -9.2756
  84   2.0000      -0.331759        -9.0276
  85   2.0000      -0.327272        -8.9055
  86   2.0000      -0.315790        -8.5931
  87   2.0000      -0.306503        -8.3404
  88   2.0000      -0.305506        -8.3132
  89   2.0000      -0.291520        -7.9327
  90   2.0000      -0.280212        -7.6250
  91   2.0000      -0.271537        -7.3889
  92   2.0000      -0.242297        -6.5932
  93   2.0000      -0.205717        -5.5978
  94   0.0000      -0.065364        -1.7786
  95   0.0000      -0.034689        -0.9439
  96   0.0000      -0.015450        -0.4204
  97   0.0000      -0.012874        -0.3503
  98   0.0000      -0.001105        -0.0301

MULLIKEN ATOMIC CHARGES
-----------------------
   0 C :   -0.097981
   1 C :   -0.187730
   2 C :   -0.100562
   3 N :    0.101606
   4 C :   -0.004309
   5 C :   -0.283572
   6 C :   -0.024057
   7 C :    0.296000
   8 O :   -0.381361
   9 O :   -0.216253
  10 C :   -0.261732
  11 H :    0.163439
  12 H :    0.182302
  13 H :    0.171866
  14 H :    0.158360
  15 H :    0.155518
  16 H :    0.162711
  17 H :    0.159113
  18 C :   -0.025704
  19 C :    0.208961
  20 C :   -0.036600
  21 C :   -0.248228
  22 C :   -0.207151
  23 C :   -0.145201
  24 C :   -0.312519
  25 C :    0.285666
  26 O :   -0.253969
  27 C :   -0.289387
  28 N :    0.501347
  29 O :   -0.441802
  30 H :    0.124496
  31 H :    0.146164
  32 H :    0.145866
  33 H :    0.151190
  34 H :    0.165141
  35 H :    0.163677
  36 H :    0.159340
  37 H :    0.156343
  38 O :   -0.431468
  39 H :    0.156333
  40 H :    0.168836
  41 C :   -0.240335
  42 H :    0.147147
  43 C :   -0.352568
  44 H :    0.157443
  45 H :    0.153623
Sum of atomic charges:   -0.0000000

LOEWDIN ATOMIC CHARGES
----------------------
   0 C :   -0.117633
   1 C :   -0.179539
   2 C :   -0.137817
   3 N :    0.294032
   4 C :   -0.135081
   5 C :   -0.144809
   6 C :   -0.155126
   7 C :   -0.488959
   8 O :    0.090384
   9 O :    0.282806
  10 C :   -0.300120
  11 H :    0.161157
  12 H :    0.166475
  13 H :    0.173106
  14 H :    0.159789
  15 H :    0.189091
  16 H :    0.123546
  17 H :    0.120624
  18 C :   -0.202279
  19 C :   -0.132391
  20 C :   -0.115098
  21 C :   -0.109518
  22 C :   -0.163906
  23 C :   -0.143980
  24 C :   -0.137821
  25 C :   -0.251360
  26 O :    0.264465
  27 C :   -0.325840
  28 N :   -0.040967
  29 O :   -0.108197
  30 H :    0.185122
  31 H :    0.159740
  32 H :    0.152430
  33 H :    0.154758
  34 H :    0.161538
  35 H :    0.123327
  36 H :    0.120382
  37 H :    0.118644
  38 O :   -0.092393
  39 H :    0.119614
  40 H :    0.158492
  41 C :   -0.191099
  42 H :    0.170504
  43 C :   -0.226990
  44 H :    0.122869
  45 H :    0.128026

  Mayer bond orders larger than 0.100000
B(  0-C ,  1-C ) :   1.2060 B(  0-C ,  5-C ) :   1.6450 B(  0-C , 11-H ) :   0.9559
B(  1-C ,  2-C ) :   1.5790 B(  1-C , 40-H ) :   0.9598 B(  2-C ,  3-N ) :   1.2221
B(  2-C , 12-H ) :   0.9459 B(  3-N ,  4-C ) :   1.1140 B(  3-N ,  6-C ) :   0.9447
B(  4-C ,  5-C ) :   1.1495 B(  4-C , 13-H ) :   0.9185 B(  4-C , 18-C ) :   0.4929
B(  5-C , 14-H ) :   0.9688 B(  6-C ,  7-C ) :   0.9756 B(  6-C , 15-H ) :   0.9111
B(  6-C , 19-C ) :   0.9596 B(  7-C ,  8-O ) :   2.0138 B(  7-C ,  9-O ) :   1.2544
B(  9-O , 10-C ) :   0.8841 B( 10-C , 16-H ) :   0.9646 B( 10-C , 17-H ) :   0.9626
B( 10-C , 39-H ) :   0.9689 B( 18-C , 19-C ) :   1.0713 B( 18-C , 20-C ) :   0.1282
B( 18-C , 28-N ) :   1.0805 B( 18-C , 41-C ) :   1.0257 B( 19-C , 20-C ) :   0.6481
B( 19-C , 30-H ) :   0.8948 B( 20-C , 21-C ) :   1.3656 B( 20-C , 25-C ) :   1.1752
B( 21-C , 22-C ) :   1.4088 B( 21-C , 31-H ) :   0.9780 B( 22-C , 23-C ) :   1.4014
B( 22-C , 32-H ) :   0.9841 B( 23-C , 24-C ) :   1.3898 B( 23-C , 33-H ) :   0.9704
B( 24-C , 25-C ) :   1.4061 B( 24-C , 34-H ) :   0.9609 B( 25-C , 26-O ) :   1.0749
B( 26-O , 27-C ) :   0.9212 B( 27-C , 35-H ) :   0.9638 B( 27-C , 36-H ) :   0.9600
B( 27-C , 37-H ) :   0.9626 B( 28-N , 29-O ) :   1.4404 B( 28-N , 38-O ) :   1.4742
B( 29-O , 38-O ) :   0.1289 B( 41-C , 42-H ) :   0.9462 B( 41-C , 43-C ) :   1.8839
B( 43-C , 44-H ) :   0.9492 B( 43-C , 45-H ) :   0.9581

Dispersion correction           -0.062950809
FINAL SINGLE POINT ENERGY     -1220.667276784040

DIPOLE MOMENT
-------------
                                X             Y             Z
Electronic contribution:      8.27893      -2.65451      -7.16029
Nuclear contribution   :     -9.85660       5.58598       8.54778
                        -----------------------------------------
Total Dipole Moment    :     -1.57767       2.93147       1.38749
                        -----------------------------------------
Magnitude (a.u.)       :      3.60662
Magnitude (Debye)      :      9.16730

Dispersion correction in the Hessian             ... done   (      0.7 sec)

VIBRATIONAL FREQUENCIES
-----------------------

Scaling factor for frequencies =  1.000000000  (already applied!)

   0:         0.00 cm**-1
   1:         0.00 cm**-1
   2:         0.00 cm**-1
   3:         0.00 cm**-1
   4:         0.00 cm**-1
   5:         0.00 cm**-1
   6:      -417.80 cm**-1 ***imaginary mode***
   7:        22.00 cm**-1
   8:        39.78 cm**-1
   9:        58.70 cm**-1
  10:        76.59 cm**-1
  11:        83.45 cm**-1
  12:        88.17 cm**-1
  13:        88.86 cm**-1
  14:       101.88 cm**-1
  15:       112.85 cm**-1
  16:       121.33 cm**-1
  17:       136.56 cm**-1
  18:       139.11 cm**-1
  19:       148.67 cm**-1
  20:       170.42 cm**-1
  21:       194.91 cm**-1
  22:       199.67 cm**-1
  23:       208.44 cm**-1
  24:       240.23 cm**-1
  25:       247.37 cm**-1
  26:       272.71 cm**-1
  27:       279.74 cm**-1
  28:       295.32 cm**-1
  29:       305.12 cm**-1
  30:       317.74 cm**-1
  31:       341.62 cm**-1
  32:       372.85 cm**-1
  33:       430.27 cm**-1
  34:       441.70 cm**-1
  35:       477.87 cm**-1
  36:       487.04 cm**-1
  37:       510.14 cm**-1
  38:       552.55 cm**-1
  39:       569.29 cm**-1
  40:       585.92 cm**-1
  41:       587.62 cm**-1
  42:       620.14 cm**-1
  43:       632.66 cm**-1
  44:       645.68 cm**-1
  45:       666.91 cm**-1
  46:       680.80 cm**-1
  47:       700.92 cm**-1
  48:       715.62 cm**-1
  49:       749.90 cm**-1
  50:       767.56 cm**-1
  51:       777.33 cm**-1
  52:       790.45 cm**-1
  53:       796.28 cm**-1
  54:       820.24 cm**-1
  55:       827.80 cm**-1
  56:       834.46 cm**-1
  57:       870.88 cm**-1
  58:       881.20 cm**-1
  59:       903.91 cm**-1
  60:       933.88 cm**-1
  61:       943.42 cm**-1
  62:       956.65 cm**-1
  63:       966.50 cm**-1
  64:       988.98 cm**-1
  65:       992.57 cm**-1
  66:      1000.41 cm**-1
  67:      1010.50 cm**-1
  68:      1021.29 cm**-1
  69:      1029.98 cm**-1
  70:      1049.12 cm**-1
  71:      1051.86 cm**-1
  72:      1070.06 cm**-1
  73:      1085.01 cm**-1
  74:      1094.10 cm**-1
  75:      1138.80 cm**-1
  76:      1147.20 cm**-1
  77:      1168.53 cm**-1
  78:      1170.71 cm**-1
  79:      1171.96 cm**-1
  80:      1173.76 cm**-1
  81:      1176.95 cm**-1
  82:      1198.48 cm**-1
  83:      1206.50 cm**-1
  84:      1207.10 cm**-1
  85:      1217.88 cm**-1
  86:      1235.65 cm**-1
  87:      1245.15 cm**-1
  88:      1253.29 cm**-1
  89:      1263.54 cm**-1
  90:      1291.15 cm**-1
  91:      1305.99 cm**-1
  92:      1329.36 cm**-1
  93:      1340.78 cm**-1
  94:      1349.84 cm**-1
  95:      1358.14 cm**-1
  96:      1370.47 cm**-1
  97:      1374.15 cm**-1
  98:      1388.79 cm**-1
  99:      1419.52 cm**-1
 100:      1439.09 cm**-1
 101:      1465.05 cm**-1
 102:      1465.28 cm**-1
 103:      1469.07 cm**-1
 104:      1471.53 cm**-1
 105:      1474.73 cm**-1
 106:      1481.82 cm**-1
 107:      1482.75 cm**-1
 108:      1498.13 cm**-1
 109:      1512.90 cm**-1
 110:      1528.11 cm**-1
 111:      1540.69 cm**-1
 112:      1595.21 cm**-1
 113:      1650.50 cm**-1
 114:      1664.18 cm**-1
 115:      1679.73 cm**-1
 116:      1687.73 cm**-1
 117:      1793.34 cm**-1
 118:      3041.73 cm**-1
 119:      3073.61 cm**-1
 120:      3109.30 cm**-1
 121:      3115.39 cm**-1
 122:      3132.82 cm**-1
 123:      3157.83 cm**-1
 124:      3168.13 cm**-1
 125:      3168.17 cm**-1
 126:      3184.34 cm**-1
 127:      3185.94 cm**-1
 128:      3190.78 cm**-1
 129:      3196.95 cm**-1
 130:      3202.44 cm**-1
 131:      3209.08 cm**-1
 132:      3214.06 cm**-1
 133:      3228.10 cm**-1
 134:      3230.71 cm**-1
 135:      3232.28 cm**-1
 136:      3248.19 cm**-1
 137:      3282.72 cm**-1

IR SPECTRUM
-----------

 Mode   freq       eps      Int      T**2         TX        TY        TZ
       cm**-1   L/(mol*cm) km/mol    a.u.
----------------------------------------------------------------------------
  7:     22.00   0.000099    0.50  0.001406  ( 0.019611  0.022372 -0.022827)
  8:     39.78   0.000022    0.11  0.000171  (-0.010895 -0.006211 -0.003647)
  9:     58.70   0.000404    2.04  0.002148  (-0.008560  0.024304 -0.038519)
 10:     76.59   0.001113    5.63  0.004536  (-0.038480 -0.052928  0.015930)
 11:     83.45   0.000392    1.98  0.001467  ( 0.017546 -0.020807 -0.026939)
 12:     88.17   0.000239    1.21  0.000847  (-0.025931  0.006803  0.011344)
 13:     88.86   0.000644    3.26  0.002263  (-0.021743  0.042298 -0.001203)
 14:    101.88   0.000428    2.16  0.001311  ( 0.000288 -0.019614  0.030434)
 15:    112.85   0.000262    1.32  0.000724  ( 0.010267  0.017390  0.017768)
 16:    121.33   0.000629    3.18  0.001619  ( 0.006102  0.038265 -0.010840)
 17:    136.56   0.003295   16.65  0.007529  ( 0.065889  0.031938  0.046559)
 18:    139.11   0.000263    1.33  0.000590  ( 0.016315  0.013545 -0.011864)
 19:    148.67   0.000071    0.36  0.000150  (-0.002707  0.005032  0.010820)
 20:    170.42   0.000347    1.75  0.000636  ( 0.000757  0.010616 -0.022858)
 21:    194.91   0.003079   15.56  0.004929  (-0.013083 -0.063526 -0.026876)
 22:    199.67   0.000434    2.19  0.000679  ( 0.011609  0.022369  0.006608)
 23:    208.44   0.001959    9.90  0.002932  ( 0.009552  0.049546 -0.019656)
 24:    240.23   0.001060    5.36  0.001377  ( 0.032084 -0.001317  0.018606)
 25:    247.37   0.000490    2.47  0.000618  (-0.009710  0.020377 -0.010406)
 26:    272.71   0.001810    9.15  0.002072  (-0.018213 -0.038530  0.015984)
 27:    279.74   0.004305   21.75  0.004802  ( 0.054534 -0.042524  0.004470)
 28:    295.32   0.001015    5.13  0.001073  (-0.024058 -0.014194 -0.017108)
 29:    305.12   0.000253    1.28  0.000258  (-0.008534 -0.005326 -0.012538)
 30:    317.74   0.000085    0.43  0.000083  (-0.000357  0.006651  0.006234)
 31:    341.62   0.000609    3.08  0.000556  (-0.023098  0.004566  0.001447)
 32:    372.85   0.003040   15.36  0.002544  (-0.026392  0.042786 -0.004151)
 33:    430.27   0.000217    1.10  0.000157  (-0.008347  0.008603  0.003678)
 34:    441.70   0.000296    1.49  0.000209  (-0.008579  0.002119  0.011436)
 35:    477.87   0.001560    7.88  0.001019  ( 0.002816 -0.031152 -0.006359)
 36:    487.04   0.000619    3.13  0.000397  (-0.007281 -0.018351 -0.002648)
 37:    510.14   0.000057    0.29  0.000035  (-0.005754  0.000762  0.001145)
 38:    552.55   0.004549   22.99  0.002569  ( 0.027572  0.036327 -0.022119)
 39:    569.29   0.008960   45.28  0.004912  ( 0.067739  0.013032  0.012383)
 40:    585.92   0.006837   34.55  0.003641  (-0.021351 -0.054220 -0.015675)
 41:    587.62   0.004767   24.09  0.002532  (-0.009885 -0.029288  0.039700)
 42:    620.14   0.002231   11.28  0.001123  (-0.023827  0.017630 -0.015627)
 43:    632.66   0.009757   49.31  0.004813  ( 0.041672  0.039205  0.039231)
 44:    645.68   0.004466   22.57  0.002158  (-0.013012 -0.042710 -0.012837)
 45:    666.91   0.001659    8.38  0.000776  (-0.001318  0.027326  0.005269)
 46:    680.80   0.007264   36.71  0.003330  (-0.007731  0.055655  0.013140)
 47:    700.92   0.025746  130.11  0.011463  ( 0.017243  0.087871  0.058685)
 48:    715.62   0.027488  138.92  0.011987  (-0.052546 -0.082420 -0.049324)
 49:    749.90   0.006951   35.13  0.002893  ( 0.015131  0.012330  0.050117)
 50:    767.56   0.020448  103.34  0.008314  ( 0.021574  0.086771 -0.017858)
 51:    777.33   0.005388   27.23  0.002163  (-0.004654 -0.046068  0.004377)
 52:    790.45   0.001754    8.87  0.000693  ( 0.009401  0.021908  0.011145)
 53:    796.28   0.001688    8.53  0.000662  ( 0.019270  0.009291  0.014278)
 54:    820.24   0.002869   14.50  0.001091  ( 0.011778  0.023399  0.020130)
 55:    827.80   0.001288    6.51  0.000486  (-0.003745 -0.020193  0.007988)
 56:    834.46   0.004841   24.47  0.001811  ( 0.034609  0.000743  0.024742)
 57:    870.88   0.003269   16.52  0.001171  (-0.020175 -0.017217 -0.021629)
 58:    881.20   0.005891   29.77  0.002086  ( 0.031891 -0.000242  0.032697)
 59:    903.91   0.002223   11.23  0.000767  (-0.016454  0.016316  0.015182)
 60:    933.88   0.018150   91.72  0.006065  ( 0.028643  0.026205  0.067512)
 61:    943.42   0.006363   32.16  0.002105  ( 0.027729  0.036197  0.005075)
 62:    956.65   0.002893   14.62  0.000944  (-0.003456 -0.029024 -0.009452)
 63:    966.50   0.000191    0.96  0.000062  ( 0.000713 -0.004301 -0.006523)
 64:    988.98   0.011831   59.79  0.003733  (-0.003277 -0.051409 -0.032854)
 65:    992.57   0.011963   60.46  0.003761  (-0.003768 -0.052486 -0.031501)
 66:   1000.41   0.008515   43.03  0.002656  ( 0.018319  0.046216  0.013583)
 67:   1010.50   0.000403    2.04  0.000125  (-0.008928  0.006156  0.002632)
 68:   1021.29   0.006471   32.70  0.001977  (-0.026011 -0.013591 -0.033408)
 69:   1029.98   0.002255   11.39  0.000683  (-0.017907  0.018603  0.004042)
 70:   1049.12   0.004399   22.23  0.001308  ( 0.029906 -0.004887 -0.019754)
 71:   1051.86   0.006647   33.59  0.001972  ( 0.013136 -0.041648 -0.008059)
 72:   1070.06   0.013536   68.41  0.003948  ( 0.029934 -0.021412 -0.050922)
 73:   1085.01   0.004941   24.97  0.001421  ( 0.010380  0.008334  0.035269)
 74:   1094.10   0.008451   42.71  0.002410  ( 0.023792  0.005080  0.042645)
 75:   1138.80   0.034620  174.95  0.009487  (-0.007129  0.050282  0.083112)
 76:   1147.20   0.003704   18.72  0.001008  ( 0.009810  0.023988 -0.018328)
 77:   1168.53   0.006177   31.22  0.001650  (-0.011874 -0.037491  0.010154)
 78:   1170.71   0.000245    1.24  0.000065  ( 0.001672  0.005869 -0.005296)
 79:   1171.96   0.000107    0.54  0.000028  (-0.002249  0.003104  0.003711)
 80:   1173.76   0.000687    3.47  0.000183  (-0.002656  0.004659  0.012407)
 81:   1176.95   0.005138   25.97  0.001362  ( 0.013771  0.027241  0.020752)
 82:   1198.48   0.013673   69.10  0.003560  ( 0.048655 -0.034318  0.003886)
 83:   1206.50   0.004415   22.31  0.001142  ( 0.009718 -0.020696 -0.024882)
 84:   1207.10   0.004380   22.14  0.001132  (-0.012216  0.031353  0.000386)
 85:   1217.88   0.017039   86.11  0.004366  (-0.003369  0.063816  0.016800)
 86:   1235.65   0.022251  112.45  0.005619  ( 0.050691 -0.053617  0.013229)
 87:   1245.15   0.002406   12.16  0.000603  ( 0.015490 -0.018941 -0.002081)
 88:   1253.29   0.000578    2.92  0.000144  ( 0.007447  0.007220 -0.006038)
 89:   1263.54   0.089301  451.29  0.022055  ( 0.085398 -0.121079  0.010115)
 90:   1291.15   0.026299  132.90  0.006356  ( 0.019939  0.000908  0.077188)
 91:   1305.99   0.043078  217.70  0.010293  (-0.054780 -0.015964 -0.083890)
 92:   1329.36   0.005323   26.90  0.001250  ( 0.003555 -0.034651 -0.006023)
 93:   1340.78   0.014777   74.68  0.003439  ( 0.040370 -0.039287  0.016315)
 94:   1349.84   0.073887  373.40  0.017082  ( 0.035161 -0.072188 -0.103122)
 95:   1358.14   0.017254   87.20  0.003965  ( 0.017749  0.000772  0.060406)
 96:   1370.47   0.030721  155.25  0.006995  ( 0.054140 -0.053666 -0.034412)
 97:   1374.15   0.021158  106.92  0.004805  (-0.010476  0.002893 -0.068460)
 98:   1388.79   0.004385   22.16  0.000985  ( 0.018248 -0.012793 -0.022104)
 99:   1419.52   0.005463   27.61  0.001201  (-0.015919 -0.004281  0.030483)
100:   1439.09   0.020634  104.27  0.004474  ( 0.019684 -0.043403  0.046937)
101:   1465.05   0.004322   21.84  0.000921  (-0.006628 -0.007599 -0.028618)
102:   1465.28   0.003363   17.00  0.000716  ( 0.007942  0.025473  0.002096)
103:   1469.07   0.011491   58.07  0.002441  ( 0.043883 -0.021760 -0.006466)
104:   1471.53   0.004603   23.26  0.000976  ( 0.001860 -0.024206  0.019667)
105:   1474.73   0.002399   12.13  0.000508  ( 0.000493 -0.006520 -0.021563)
106:   1481.82   0.025096  126.83  0.005285  (-0.060405 -0.032756  0.023737)
107:   1482.75   0.003563   18.01  0.000750  ( 0.015581 -0.005135  0.021926)
108:   1498.13   0.012232   61.81  0.002548  (-0.024965 -0.012774 -0.041970)
109:   1512.90   0.008345   42.17  0.001721  ( 0.024453  0.028545 -0.017563)
110:   1528.11   0.060932  307.92  0.012443  (-0.002360 -0.104556  0.038804)
111:   1540.69   0.040632  205.34  0.008230  (-0.051947  0.013151 -0.073202)
112:   1595.21   0.051813  261.84  0.010136  (-0.059127 -0.073810  0.034526)
113:   1650.50   0.008218   41.53  0.001554  (-0.007824 -0.005902 -0.038180)
114:   1664.18   0.009998   50.53  0.001875  (-0.035091 -0.004072 -0.025036)
115:   1679.73   0.037406  189.04  0.006949  ( 0.081051  0.019480  0.000861)
116:   1687.73   0.024876  125.71  0.004600  ( 0.044663 -0.043928  0.025984)
117:   1793.34   0.103464  522.87  0.018004  (-0.080986 -0.033684 -0.101542)
118:   3041.73   0.011843   59.85  0.001215  ( 0.009778 -0.010166 -0.031875)
119:   3073.61   0.006221   31.44  0.000632  (-0.009718  0.021874  0.007662)
120:   3109.30   0.001345    6.80  0.000135  ( 0.003753 -0.010392 -0.003587)
121:   3115.39   0.006963   35.19  0.000697  ( 0.004077  0.025293 -0.006413)
122:   3132.82   0.000598    3.02  0.000060  ( 0.007415 -0.001943  0.000891)
123:   3157.83   0.003771   19.06  0.000373  (-0.012320 -0.010858  0.010150)
124:   3168.13   0.003035   15.34  0.000299  ( 0.012194 -0.004608  0.011359)
125:   3168.17   0.001905    9.63  0.000188  ( 0.011704  0.006623 -0.002606)
126:   3184.34   0.000786    3.97  0.000077  (-0.004601  0.001852  0.007240)
127:   3185.94   0.003320   16.78  0.000325  (-0.014253  0.008081  0.007530)
128:   3190.78   0.002039   10.31  0.000199  (-0.009452  0.002809 -0.010110)
129:   3196.95   0.001515    7.65  0.000148  ( 0.009843 -0.002981 -0.006488)
130:   3202.44   0.001395    7.05  0.000136  (-0.007180  0.006696 -0.006290)
131:   3209.08   0.002150   10.86  0.000209  (-0.007773 -0.009834  0.007205)
132:   3214.06   0.003238   16.36  0.000314  (-0.013241 -0.000518 -0.011779)
133:   3228.10   0.000336    1.70  0.000032  (-0.003809  0.000569 -0.004203)
134:   3230.71   0.000284    1.43  0.000027  ( 0.002978 -0.001780 -0.003922)
135:   3232.28   0.000250    1.26  0.000024  ( 0.004007 -0.000281  0.002830)
136:   3248.19   0.000037    0.19  0.000004  ( 0.000735  0.000931 -0.001453)
137:   3282.72   0.000523    2.65  0.000050  (-0.006411 -0.002391  0.001717)

--------------------------
THERMOCHEMISTRY AT 298.15K
--------------------------

Temperature         ... 298.15 K
Pressure            ... 1.00 atm
Total Mass          ... 356.38 AMU

Throughout the following assumptions are being made:
  (1) The electronic state is orbitally nondegenerate
  (2) There are no thermally accessible electronically excited states
  (3) Hindered rotations indicated by low frequency modes are not
      treated as such but are treated as vibrations and this may
      cause some error
  (4) All equations used are the standard statistical mechanics
      equations for an ideal gas
  (5) All vibrations are strictly harmonic

freq.      22.00  E(vib)   ...       0.56
freq.      39.78  E(vib)   ...       0.54
freq.      58.70  E(vib)   ...       0.51
freq.      76.59  E(vib)   ...       0.49
freq.      83.45  E(vib)   ...       0.48
freq.      88.17  E(vib)   ...       0.48
freq.      88.86  E(vib)   ...       0.47
freq.     101.88  E(vib)   ...       0.46
freq.     112.85  E(vib)   ...       0.45
freq.     121.33  E(vib)   ...       0.44
freq.     136.56  E(vib)   ...       0.42
freq.     139.11  E(vib)   ...       0.42
freq.     148.67  E(vib)   ...       0.41
freq.     170.42  E(vib)   ...       0.38
freq.     194.91  E(vib)   ...       0.36
freq.     199.67  E(vib)   ...       0.35
freq.     208.44  E(vib)   ...       0.34
freq.     240.23  E(vib)   ...       0.31
freq.     247.37  E(vib)   ...       0.31
freq.     272.71  E(vib)   ...       0.29
freq.     279.74  E(vib)   ...       0.28
freq.     295.32  E(vib)   ...       0.27
freq.     305.12  E(vib)   ...       0.26
freq.     317.74  E(vib)   ...       0.25
freq.     341.62  E(vib)   ...       0.23
freq.     372.85  E(vib)   ...       0.21
freq.     430.27  E(vib)   ...       0.18
freq.     441.70  E(vib)   ...       0.17
freq.     477.87  E(vib)   ...       0.15
freq.     487.04  E(vib)   ...       0.15
freq.     510.14  E(vib)   ...       0.14
freq.     552.55  E(vib)   ...       0.12
freq.     569.29  E(vib)   ...       0.11
freq.     585.92  E(vib)   ...       0.11
freq.     587.62  E(vib)   ...       0.10
freq.     620.14  E(vib)   ...       0.09
freq.     632.66  E(vib)   ...       0.09
freq.     645.68  E(vib)   ...       0.09
freq.     666.91  E(vib)   ...       0.08
freq.     680.80  E(vib)   ...       0.08
freq.     700.92  E(vib)   ...       0.07
freq.     715.62  E(vib)   ...       0.07
freq.     749.90  E(vib)   ...       0.06
freq.     767.56  E(vib)   ...       0.06
freq.     777.33  E(vib)   ...       0.05
freq.     790.45  E(vib)   ...       0.05
freq.     796.28  E(vib)   ...       0.05
freq.     820.24  E(vib)   ...       0.05
freq.     827.80  E(vib)   ...       0.04
freq.     834.46  E(vib)   ...       0.04
freq.     870.88  E(vib)   ...       0.04
freq.     881.20  E(vib)   ...       0.04
freq.     903.91  E(vib)   ...       0.03
freq.     933.88  E(vib)   ...       0.03
freq.     943.42  E(vib)   ...       0.03
freq.     956.65  E(vib)   ...       0.03
freq.     966.50  E(vib)   ...       0.03
freq.     988.98  E(vib)   ...       0.02
freq.     992.57  E(vib)   ...       0.02
freq.    1000.41  E(vib)   ...       0.02
freq.    1010.50  E(vib)   ...       0.02
freq.    1021.29  E(vib)   ...       0.02
freq.    1029.98  E(vib)   ...       0.02
freq.    1049.12  E(vib)   ...       0.02
freq.    1051.86  E(vib)   ...       0.02
freq.    1070.06  E(vib)   ...       0.02
freq.    1085.01  E(vib)   ...       0.02
freq.    1094.10  E(vib)   ...       0.02
freq.    1138.80  E(vib)   ...       0.01
freq.    1147.20  E(vib)   ...       0.01
freq.    1168.53  E(vib)   ...       0.01
freq.    1170.71  E(vib)   ...       0.01
freq.    1171.96  E(vib)   ...       0.01
freq.    1173.76  E(vib)   ...       0.01
freq.    1176.95  E(vib)   ...       0.01
freq.    1198.48  E(vib)   ...       0.01
freq.    1206.50  E(vib)   ...       0.01
freq.    1207.10  E(vib)   ...       0.01
freq.    1217.88  E(vib)   ...       0.01
freq.    1235.65  E(vib)   ...       0.01
freq.    1245.15  E(vib)   ...       0.01
freq.    1253.29  E(vib)   ...       0.01
freq.    1263.54  E(vib)   ...       0.01
freq.    1291.15  E(vib)   ...       0.01
freq.    1305.99  E(vib)   ...       0.01
freq.    1329.36  E(vib)   ...       0.01
freq.    1340.78  E(vib)   ...       0.01
freq.    1349.84  E(vib)   ...       0.01
freq.    1358.14  E(vib)   ...       0.01
freq.    1370.47  E(vib)   ...       0.01
freq.    1374.15  E(vib)   ...       0.01
freq.    1388.79  E(vib)   ...       0.00
freq.    1419.52  E(vib)   ...       0.00
freq.    1439.09  E(vib)   ...       0.00
freq.    1465.05  E(vib)   ...       0.00
freq.    1465.28  E(vib)   ...       0.00
freq.    1469.07  E(vib)   ...       0.00
freq.    1471.53  E(vib)   ...       0.00
freq.    1474.73  E(vib)   ...       0.00
freq.    1481.82  E(vib)   ...       0.00
freq.    1482.75  E(vib)   ...       0.00
freq.    1498.13  E(vib)   ...       0.00
freq.    1512.90  E(vib)   ...       0.00
freq.    1528.11  E(vib)   ...       0.00
freq.    1540.69  E(vib)   ...       0.00
freq.    1595.21  E(vib)   ...       0.00
freq.    1650.50  E(vib)   ...       0.00
freq.    1664.18  E(vib)   ...       0.00
freq.    1679.73  E(vib)   ...       0.00
freq.    1687.73  E(vib)   ...       0.00
freq.    1793.34  E(vib)   ...       0.00
freq.    3041.73  E(vib)   ...       0.00
freq.    3073.61  E(vib)   ...       0.00
freq.    3109.30  E(vib)   ...       0.00
freq.    3115.39  E(vib)   ...       0.00
freq.    3132.82  E(vib)   ...       0.00
freq.    3157.83  E(vib)   ...       0.00
freq.    3168.13  E(vib)   ...       0.00
freq.    3168.17  E(vib)   ...       0.00
freq.    3184.34  E(vib)   ...       0.00
freq.    3185.94  E(vib)   ...       0.00
freq.    3190.78  E(vib)   ...       0.00
freq.    3196.95  E(vib)   ...       0.00
freq.    3202.44  E(vib)   ...       0.00
freq.    3209.08  E(vib)   ...       0.00
freq.    3214.06  E(vib)   ...       0.00
freq.    3228.10  E(vib)   ...       0.00
freq.    3230.71  E(vib)   ...       0.00
freq.    3232.28  E(vib)   ...       0.00
freq.    3248.19  E(vib)   ...       0.00
freq.    3282.72  E(vib)   ...       0.00

------------
INNER ENERGY
------------

The inner energy is: U= E(el) + E(ZPE) + E(vib) + E(rot) + E(trans)
    E(el)   - is the total energy from the electronic structure calculation
              = E(kin-el) + E(nuc-el) + E(el-el) + E(nuc-nuc)
    E(ZPE)  - the the zero temperature vibrational energy from the frequency calculation
    E(vib)  - the the finite temperature correction to E(ZPE) due to population
              of excited vibrational states
    E(rot)  - is the rotational thermal energy
    E(trans)- is the translational thermal energy

Rotational constants in cm-1:     0.011275     0.006714     0.005543

                             ****ORCA TERMINATED NORMALLY****
TOTAL RUN TIME: 0 days 1 hours 9 minutes 3 seconds 258 msec
