                         Program Version 5.0.4 -  RELEASE  -
|  1> %pal nprocs 24 end
|  2> ! PBE0 D3BJ def2-TZVP TightSCF OPT FREQ TightOpt
|  3> ! CPCM(dmso)
|  4> %scf
|  5> MaxIter 800
|  6> end
|  7>
|  8> %geom
|  9> MaxIter 800
| 10> MaxStep 0.15
| 11> end
| 12>
| 13> *xyz 0 1
| 14> C       4.15101700      0.58871100      0.48581000
| 15> C       3.97377000      1.42644500     -0.67785700
| 16> C       2.71206000      1.60953100     -1.14183600
| 17> N       1.62818800      1.07297800     -0.51563700
| 18> C       1.71125100      0.19700800      0.62408500
| 19> C       3.10465000      0.01072800      1.11418300
| 20> C       0.31828600      0.99706000     -1.09155700
| 21> C      -0.58384600      2.09769000     -0.54463000
| 22> O      -0.23191200      2.95059900      0.23012900
| 23> O      -1.77694700      2.05262900     -1.12076300
| 24> C      -2.73213600      3.01794500     -0.69884900
| 25> H       5.16044000      0.43291100      0.87755700
| 26> H       2.48506700      2.19972200     -2.03331100
| 27> H       1.03638100      0.54051700      1.42872200
| 28> H       3.23920800     -0.60396100      2.00639200
| 29> H       0.37318400      1.18410400     -2.17494200
| 30> H      -2.96938900      2.87935600      0.36581000
| 31> H      -3.62716600      2.84978100     -1.30757700
| 32> C       0.92996700     -1.10016700      0.09272800
| 33> C      -0.13665400     -0.49835200     -0.87145500
| 34> C      -1.56612400     -0.78041900     -0.49627500
| 35> C      -2.35804800     -1.56401300     -1.33311300
| 36> C      -3.68145400     -1.87197800     -1.00880100
| 37> C      -4.22033000     -1.38815600      0.17899300
| 38> C      -3.45071600     -0.60065900      1.03868000
| 39> C      -2.13154500     -0.29644200      0.70021100
| 40> O      -1.31744700      0.46815300      1.45178800
| 41> C      -1.76715400      0.97328100      2.68680700
| 42> N       1.96670500     -1.86601100     -0.71108800
| 43> O       2.17512200     -1.50173000     -1.84686000
| 44> H       0.02998900     -0.99406500     -1.83328000
| 45> H      -1.92295800     -1.94235700     -2.26235100
| 46> H      -4.28192900     -2.48755500     -1.68188400
| 47> H      -5.25313300     -1.62049400      0.45093600
| 48> H      -3.88450700     -0.22710600      1.96665500
| 49> H      -2.00814400      0.15537500      3.38524300
| 50> H      -2.65225000      1.61747300      2.55995800
| 51> H      -0.94223400      1.57007400      3.09435400
| 52> O       2.60256000     -2.71559800     -0.13334200
| 53> H      -2.34952300      4.03635500     -0.85431400
| 54> H       4.82089500      1.89072400     -1.18101000
| 55> C       0.45226600     -1.94809900      1.16341300
| 56> C       0.05889200     -2.60785500      2.09920500
| 57> H      -0.29773800     -3.20661900      2.92080500
| 58> *
| 59>
| 60>                          ****END OF INPUT****
 Total Charge           Charge          ....    0
 Multiplicity           Mult            ....    1
 Number of Electrons    NEL             ....  186
Dispersion correction           -0.060972218
FINAL SINGLE POINT ENERGY     -1219.424416172031
Dispersion correction            ... done
Dispersion correction           -0.060635037
FINAL SINGLE POINT ENERGY     -1219.425930073577
Dispersion correction            ... done
Dispersion correction           -0.061391994
FINAL SINGLE POINT ENERGY     -1219.423479803525
Dispersion correction            ... done
FINAL SINGLE POINT ENERGY     -1219.426331519838
FINAL SINGLE POINT ENERGY     -1219.425457336559
FINAL SINGLE POINT ENERGY     -1219.426413610600
FINAL SINGLE POINT ENERGY     -1219.426418960110
FINAL SINGLE POINT ENERGY     -1219.426424732738
FINAL SINGLE POINT ENERGY     -1219.426428150055
Dispersion correction           -0.060905237
FINAL SINGLE POINT ENERGY     -1219.426431967735
Dispersion correction            ... done
Dispersion correction           -0.060899254
FINAL SINGLE POINT ENERGY     -1219.426432557363
Dispersion correction            ... done
                    ***********************HURRAY********************

CARTESIAN COORDINATES (ANGSTROEM)
---------------------------------
  C      4.157888    0.580461    0.468772
  C      3.958250    1.450426   -0.660738
  C      2.696914    1.637095   -1.098848
  N      1.625718    1.080133   -0.475689
  C      1.731802    0.167989    0.630002
  C      3.131516   -0.025022    1.086115
  C      0.322978    1.002346   -1.063765
  C     -0.591508    2.105168   -0.547471
  O     -0.257066    2.970224    0.220060
  O     -1.771884    2.045345   -1.145430
  C     -2.733238    3.029121   -0.756184
  H      5.165525    0.420176    0.837658
  H      2.455992    2.245865   -1.962581
  H      1.080513    0.482753    1.454333
  H      3.283825   -0.666242    1.945501
  H      0.396859    1.180833   -2.139793
  H     -2.938976    2.949949    0.311592
  H     -3.628712    2.808603   -1.331183
  C      0.938138   -1.113727    0.085270
  C     -0.135750   -0.491070   -0.853699
  C     -1.557498   -0.774715   -0.463960
  C     -2.343016   -1.553252   -1.300237
  C     -3.659440   -1.864648   -0.982070
  C     -4.198742   -1.388021    0.200189
  C     -3.435801   -0.605093    1.058643
  C     -2.122898   -0.299610    0.726837
  O     -1.313290    0.463698    1.487172
  C     -1.809787    0.986479    2.703334
  N      1.950472   -1.887306   -0.738545
  O      2.170993   -1.493801   -1.863031
  H      0.008861   -0.969209   -1.819638
  H     -1.909921   -1.921957   -2.224423
  H     -4.252321   -2.473459   -1.653801
  H     -5.223353   -1.620894    0.467386
  H     -3.868800   -0.238396    1.979606
  H     -2.074307    0.181691    3.394721
  H     -2.681471    1.623489    2.530921
  H     -1.002386    1.580938    3.125719
  O      2.557067   -2.779901   -0.192372
  H     -2.367168    4.029563   -0.987284
  H      4.786929    1.933784   -1.156719
  C      0.463632   -1.959511    1.150806
  C      0.069763   -2.619653    2.071680
  H     -0.289688   -3.213127    2.882871

 Multiplicity           Mult            ....    1
 Number of Electrons    NEL             ....  186
 Basis Dimension        Dim             ....  914

ORBITAL ENERGIES
----------------

  NO   OCC          E(Eh)            E(eV)
   0   2.0000     -19.263043      -524.1740
   1   2.0000     -19.254512      -523.9419
   2   2.0000     -19.253899      -523.9252
   3   2.0000     -19.248491      -523.7781
   4   2.0000     -19.201712      -522.5051
   5   2.0000     -14.628333      -398.0572
   6   2.0000     -14.428212      -392.6116
   7   2.0000     -10.358817      -281.8777
   8   2.0000     -10.325022      -280.9581
   9   2.0000     -10.293046      -280.0880
  10   2.0000     -10.291276      -280.0399
  11   2.0000     -10.289958      -280.0040
  12   2.0000     -10.270587      -279.4769
  13   2.0000     -10.269953      -279.4596
  14   2.0000     -10.267893      -279.4036
  15   2.0000     -10.266959      -279.3782
  16   2.0000     -10.244150      -278.7575
  17   2.0000     -10.241357      -278.6815
  18   2.0000     -10.235329      -278.5175
  19   2.0000     -10.232788      -278.4483
  20   2.0000     -10.230795      -278.3941
  21   2.0000     -10.230630      -278.3896
  22   2.0000     -10.226134      -278.2673
  23   2.0000     -10.225570      -278.2519
  24   2.0000     -10.221644      -278.1451
  25   2.0000     -10.208786      -277.7952
  26   2.0000      -1.287527       -35.0354
  27   2.0000      -1.153717       -31.3942
  28   2.0000      -1.112876       -30.2829
  29   2.0000      -1.108823       -30.1726
  30   2.0000      -1.061370       -28.8813
  31   2.0000      -1.024259       -27.8715
  32   2.0000      -0.908036       -24.7089
  33   2.0000      -0.885578       -24.0978
  34   2.0000      -0.858001       -23.3474
  35   2.0000      -0.813523       -22.1371
  36   2.0000      -0.798647       -21.7323
  37   2.0000      -0.784079       -21.3359
  38   2.0000      -0.781459       -21.2646
  39   2.0000      -0.774885       -21.0857
  40   2.0000      -0.747996       -20.3540
  41   2.0000      -0.723080       -19.6760
  42   2.0000      -0.707958       -19.2645
  43   2.0000      -0.670643       -18.2491
  44   2.0000      -0.654802       -17.8181
  45   2.0000      -0.645611       -17.5680
  46   2.0000      -0.631733       -17.1903
  47   2.0000      -0.613762       -16.7013
  48   2.0000      -0.597119       -16.2484
  49   2.0000      -0.595816       -16.2130
  50   2.0000      -0.577357       -15.7107
  51   2.0000      -0.564992       -15.3742
  52   2.0000      -0.553130       -15.0514
  53   2.0000      -0.550339       -14.9755
  54   2.0000      -0.542844       -14.7715
  55   2.0000      -0.536155       -14.5895
  56   2.0000      -0.521558       -14.1923
  57   2.0000      -0.518775       -14.1166
  58   2.0000      -0.510529       -13.8922
  59   2.0000      -0.503913       -13.7122
  60   2.0000      -0.499774       -13.5996
  61   2.0000      -0.487106       -13.2548
  62   2.0000      -0.483801       -13.1649
  63   2.0000      -0.475668       -12.9436
  64   2.0000      -0.463459       -12.6114
  65   2.0000      -0.461537       -12.5591
  66   2.0000      -0.454482       -12.3671
  67   2.0000      -0.444506       -12.0956
  68   2.0000      -0.440660       -11.9910
  69   2.0000      -0.433794       -11.8041
  70   2.0000      -0.423783       -11.5317
  71   2.0000      -0.408424       -11.1138
  72   2.0000      -0.402533       -10.9535
  73   2.0000      -0.395874       -10.7723
  74   2.0000      -0.388907       -10.5827
  75   2.0000      -0.381213       -10.3733
  76   2.0000      -0.379347       -10.3226
  77   2.0000      -0.371232       -10.1017
  78   2.0000      -0.366976        -9.9859
  79   2.0000      -0.361880        -9.8473
  80   2.0000      -0.350127        -9.5274
  81   2.0000      -0.346528        -9.4295
  82   2.0000      -0.344766        -9.3816
  83   2.0000      -0.340548        -9.2668
  84   2.0000      -0.332382        -9.0446
  85   2.0000      -0.329353        -8.9621
  86   2.0000      -0.312085        -8.4923
  87   2.0000      -0.305983        -8.3262
  88   2.0000      -0.302866        -8.2414
  89   2.0000      -0.297228        -8.0880
  90   2.0000      -0.272294        -7.4095
  91   2.0000      -0.240894        -6.5550
  92   2.0000      -0.201988        -5.4964
  93   0.0000      -0.074195        -2.0189
  94   0.0000      -0.029172        -0.7938
  95   0.0000      -0.016720        -0.4550
  96   0.0000      -0.000766        -0.0209
  97   0.0000       0.004338         0.1180

MULLIKEN ATOMIC CHARGES
-----------------------
   0 C :   -0.113721
   1 C :   -0.242297
   2 C :   -0.133724
   3 N :    0.046555
   4 C :   -0.016899
   5 C :   -0.326009
   6 C :   -0.010188
   7 C :    0.282113
   8 O :   -0.386656
   9 O :   -0.218054
  10 C :   -0.260783
  11 H :    0.152827
  12 H :    0.171621
  13 H :    0.140195
  14 H :    0.151653
  15 H :    0.148362
  16 H :    0.154869
  17 H :    0.161694
  18 C :    0.088975
  19 C :    0.160704
  20 C :   -0.023312
  21 C :   -0.258088
  22 C :   -0.203932
  23 C :   -0.146058
  24 C :   -0.299160
  25 C :    0.273976
  26 O :   -0.250761
  27 C :   -0.293970
  28 N :    0.477498
  29 O :   -0.344379
  30 H :    0.139006
  31 H :    0.145857
  32 H :    0.145739
  33 H :    0.151266
  34 H :    0.165754
  35 H :    0.157655
  36 H :    0.156106
  37 H :    0.162459
  38 O :   -0.327124
  39 H :    0.157371
  40 H :    0.157128
  41 C :   -0.089926
  42 C :   -0.221309
  43 H :    0.216969
Sum of atomic charges:   -0.0000000

LOEWDIN ATOMIC CHARGES
----------------------
   0 C :   -0.157017
   1 C :   -0.223809
   2 C :   -0.178318
   3 N :    0.265255
   4 C :   -0.179676
   5 C :   -0.156973
   6 C :   -0.173632
   7 C :   -0.485787
   8 O :    0.086357
   9 O :    0.279576
  10 C :   -0.302863
  11 H :    0.156294
  12 H :    0.161417
  13 H :    0.176222
  14 H :    0.154560
  15 H :    0.187030
  16 H :    0.119253
  17 H :    0.123083
  18 C :   -0.183452
  19 C :   -0.104202
  20 C :   -0.111831
  21 C :   -0.109087
  22 C :   -0.165542
  23 C :   -0.143524
  24 C :   -0.137965
  25 C :   -0.237926
  26 O :    0.276046
  27 C :   -0.327514
  28 N :   -0.029027
  29 O :   -0.014867
  30 H :    0.187099
  31 H :    0.159894
  32 H :    0.152213
  33 H :    0.154741
  34 H :    0.161284
  35 H :    0.120004
  36 H :    0.118306
  37 H :    0.122777
  38 O :   -0.011244
  39 H :    0.120048
  40 H :    0.150589
  41 C :   -0.088230
  42 C :   -0.054690
  43 H :    0.145132

  Mayer bond orders larger than 0.100000
B(  0-C ,  1-C ) :   1.1005 B(  0-C ,  5-C ) :   1.8262 B(  0-C , 11-H ) :   0.9577
B(  1-C ,  2-C ) :   1.6681 B(  1-C , 40-H ) :   0.9680 B(  2-C ,  3-N ) :   1.1958
B(  2-C , 12-H ) :   0.9481 B(  3-N ,  4-C ) :   0.9741 B(  3-N ,  6-C ) :   0.9800
B(  4-C ,  5-C ) :   0.9557 B(  4-C , 13-H ) :   0.9222 B(  4-C , 18-C ) :   0.7925
B(  4-C , 41-C ) :   0.1038 B(  5-C , 14-H ) :   0.9676 B(  6-C ,  7-C ) :   0.9638
B(  6-C , 15-H ) :   0.9024 B(  6-C , 19-C ) :   0.9678 B(  6-C , 20-C ) :   0.1030
B(  7-C ,  8-O ) :   2.0197 B(  7-C ,  9-O ) :   1.2468 B(  9-O , 10-C ) :   0.8859
B( 10-C , 16-H ) :   0.9698 B( 10-C , 17-H ) :   0.9649 B( 10-C , 39-H ) :   0.9629
B( 18-C , 19-C ) :   1.0353 B( 18-C , 20-C ) :   0.1001 B( 18-C , 28-N ) :   0.8911
B( 18-C , 41-C ) :   1.1750 B( 19-C , 20-C ) :   0.7504 B( 19-C , 30-H ) :   0.8989
B( 20-C , 21-C ) :   1.3766 B( 20-C , 25-C ) :   1.2186 B( 21-C , 22-C ) :   1.4002
B( 21-C , 31-H ) :   0.9806 B( 22-C , 23-C ) :   1.4034 B( 22-C , 32-H ) :   0.9844
B( 23-C , 24-C ) :   1.3882 B( 23-C , 33-H ) :   0.9700 B( 24-C , 25-C ) :   1.3855
B( 24-C , 34-H ) :   0.9604 B( 25-C , 26-O ) :   1.0840 B( 26-O , 27-C ) :   0.9227
B( 27-C , 35-H ) :   0.9602 B( 27-C , 36-H ) :   0.9622 B( 27-C , 37-H ) :   0.9645
B( 28-N , 29-O ) :   1.5807 B( 28-N , 38-O ) :   1.6300 B( 29-O , 38-O ) :   0.1965
B( 41-C , 42-C ) :   2.6143 B( 42-C , 43-H ) :   0.9911

Dispersion correction           -0.060908473
FINAL SINGLE POINT ENERGY     -1219.426432311021

DIPOLE MOMENT
-------------
                                X             Y             Z
Electronic contribution:      9.21544      -7.07285      -4.94263
Nuclear contribution   :    -12.09817       8.04605       5.55049
                        -----------------------------------------
Total Dipole Moment    :     -2.88272       0.97321       0.60787
                        -----------------------------------------
Magnitude (a.u.)       :      3.10270
Magnitude (Debye)      :      7.88643

Dispersion correction in the Hessian             ... done   (      0.6 sec)

VIBRATIONAL FREQUENCIES
-----------------------

Scaling factor for frequencies =  1.000000000  (already applied!)

   0:         0.00 cm**-1
   1:         0.00 cm**-1
   2:         0.00 cm**-1
   3:         0.00 cm**-1
   4:         0.00 cm**-1
   5:         0.00 cm**-1
   6:        26.18 cm**-1
   7:        48.38 cm**-1
   8:        61.39 cm**-1
   9:        69.87 cm**-1
  10:        71.95 cm**-1
  11:        86.89 cm**-1
  12:        97.95 cm**-1
  13:       100.27 cm**-1
  14:       111.40 cm**-1
  15:       120.26 cm**-1
  16:       123.43 cm**-1
  17:       145.25 cm**-1
  18:       149.65 cm**-1
  19:       160.74 cm**-1
  20:       191.94 cm**-1
  21:       200.18 cm**-1
  22:       213.63 cm**-1
  23:       236.69 cm**-1
  24:       249.12 cm**-1
  25:       274.44 cm**-1
  26:       288.72 cm**-1
  27:       301.33 cm**-1
  28:       305.68 cm**-1
  29:       337.27 cm**-1
  30:       373.98 cm**-1
  31:       387.93 cm**-1
  32:       421.67 cm**-1
  33:       469.07 cm**-1
  34:       478.93 cm**-1
  35:       486.52 cm**-1
  36:       493.21 cm**-1
  37:       516.97 cm**-1
  38:       554.34 cm**-1
  39:       567.65 cm**-1
  40:       575.12 cm**-1
  41:       590.49 cm**-1
  42:       610.21 cm**-1
  43:       631.53 cm**-1
  44:       646.84 cm**-1
  45:       671.46 cm**-1
  46:       697.49 cm**-1
  47:       710.00 cm**-1
  48:       711.64 cm**-1
  49:       718.63 cm**-1
  50:       752.02 cm**-1
  51:       764.68 cm**-1
  52:       769.95 cm**-1
  53:       784.04 cm**-1
  54:       799.08 cm**-1
  55:       827.09 cm**-1
  56:       830.83 cm**-1
  57:       862.81 cm**-1
  58:       872.37 cm**-1
  59:       881.69 cm**-1
  60:       929.27 cm**-1
  61:       936.63 cm**-1
  62:       949.75 cm**-1
  63:       958.35 cm**-1
  64:       984.42 cm**-1
  65:       989.13 cm**-1
  66:      1000.49 cm**-1
  67:      1012.85 cm**-1
  68:      1018.26 cm**-1
  69:      1032.68 cm**-1
  70:      1045.61 cm**-1
  71:      1072.43 cm**-1
  72:      1081.48 cm**-1
  73:      1087.37 cm**-1
  74:      1147.72 cm**-1
  75:      1155.90 cm**-1
  76:      1171.64 cm**-1
  77:      1172.74 cm**-1
  78:      1174.32 cm**-1
  79:      1194.18 cm**-1
  80:      1206.53 cm**-1
  81:      1206.93 cm**-1
  82:      1214.81 cm**-1
  83:      1239.79 cm**-1
  84:      1241.48 cm**-1
  85:      1245.73 cm**-1
  86:      1263.37 cm**-1
  87:      1274.71 cm**-1
  88:      1309.48 cm**-1
  89:      1315.12 cm**-1
  90:      1326.84 cm**-1
  91:      1352.42 cm**-1
  92:      1357.54 cm**-1
  93:      1369.17 cm**-1
  94:      1390.15 cm**-1
  95:      1400.24 cm**-1
  96:      1426.93 cm**-1
  97:      1441.65 cm**-1
  98:      1465.20 cm**-1
  99:      1465.63 cm**-1
 100:      1469.04 cm**-1
 101:      1472.63 cm**-1
 102:      1474.98 cm**-1
 103:      1483.23 cm**-1
 104:      1499.90 cm**-1
 105:      1502.68 cm**-1
 106:      1543.20 cm**-1
 107:      1619.06 cm**-1
 108:      1643.93 cm**-1
 109:      1652.83 cm**-1
 110:      1665.78 cm**-1
 111:      1706.59 cm**-1
 112:      1794.48 cm**-1
 113:      2239.54 cm**-1
 114:      3028.76 cm**-1
 115:      3039.99 cm**-1
 116:      3072.64 cm**-1
 117:      3089.99 cm**-1
 118:      3112.86 cm**-1
 119:      3143.82 cm**-1
 120:      3156.36 cm**-1
 121:      3167.10 cm**-1
 122:      3185.97 cm**-1
 123:      3188.17 cm**-1
 124:      3188.79 cm**-1
 125:      3196.44 cm**-1
 126:      3212.09 cm**-1
 127:      3214.82 cm**-1
 128:      3215.54 cm**-1
 129:      3230.59 cm**-1
 130:      3246.96 cm**-1
 131:      3450.29 cm**-1

IR SPECTRUM
-----------

 Mode   freq       eps      Int      T**2         TX        TY        TZ
       cm**-1   L/(mol*cm) km/mol    a.u.
----------------------------------------------------------------------------
  6:     26.18   0.000052    0.26  0.000615  (-0.004660 -0.017718  0.016707)
  7:     48.38   0.000016    0.08  0.000103  (-0.003864 -0.000238 -0.009402)
  8:     61.39   0.000085    0.43  0.000430  (-0.005939  0.015446  0.012506)
  9:     69.87   0.000396    2.00  0.001768  ( 0.025519  0.000044 -0.033426)
 10:     71.95   0.001046    5.29  0.004537  (-0.022724  0.059047 -0.023105)
 11:     86.89   0.000318    1.61  0.001143  ( 0.025047  0.015921 -0.016178)
 12:     97.95   0.000139    0.70  0.000443  (-0.018529 -0.000687  0.009965)
 13:    100.27   0.000718    3.63  0.002234  ( 0.019347 -0.024836  0.035256)
 14:    111.40   0.000584    2.95  0.001636  (-0.007929 -0.039614 -0.002088)
 15:    120.26   0.000304    1.53  0.000788  (-0.007395 -0.025762  0.008354)
 16:    123.43   0.000515    2.60  0.001302  (-0.026458  0.014044 -0.020113)
 17:    145.25   0.000781    3.95  0.001679  (-0.019674 -0.033689  0.012519)
 18:    149.65   0.000210    1.06  0.000437  (-0.020723  0.002806  0.000250)
 19:    160.74   0.000888    4.49  0.001724  (-0.019154  0.036715  0.003076)
 20:    191.94   0.000303    1.53  0.000493  (-0.013270  0.014551 -0.010260)
 21:    200.18   0.000130    0.66  0.000202  (-0.004887  0.012543 -0.004569)
 22:    213.63   0.001741    8.80  0.002543  (-0.003460  0.022503 -0.044990)
 23:    236.69   0.000531    2.68  0.000700  ( 0.026312 -0.002050 -0.001892)
 24:    249.12   0.000500    2.53  0.000627  (-0.012414  0.013022 -0.017408)
 25:    274.44   0.002295   11.60  0.002610  (-0.048764  0.012350 -0.008913)
 26:    288.72   0.000035    0.18  0.000038  ( 0.001049 -0.003812 -0.004742)
 27:    301.33   0.000344    1.74  0.000356  (-0.003128  0.017748 -0.005611)
 28:    305.68   0.003402   17.19  0.003473  (-0.052291 -0.026281 -0.006945)
 29:    337.27   0.001644    8.31  0.001521  (-0.038702 -0.004706 -0.001017)
 30:    373.98   0.001211    6.12  0.001011  (-0.029289  0.005644 -0.010993)
 31:    387.93   0.012116   61.23  0.009747  ( 0.016720  0.094913  0.021411)
 32:    421.67   0.002267   11.46  0.001678  ( 0.008748 -0.038698 -0.010176)
 33:    469.07   0.001465    7.40  0.000974  (-0.021246 -0.002118  0.022772)
 34:    478.93   0.000881    4.45  0.000574  (-0.005447 -0.020295  0.011521)
 35:    486.52   0.001189    6.01  0.000763  ( 0.022048  0.007512 -0.014845)
 36:    493.21   0.001274    6.44  0.000806  ( 0.002039 -0.026579  0.009769)
 37:    516.97   0.001308    6.61  0.000790  ( 0.015621  0.017932 -0.014966)
 38:    554.34   0.001818    9.19  0.001023  ( 0.000090  0.026521 -0.017890)
 39:    567.65   0.004687   23.69  0.002577  (-0.045299 -0.000846 -0.022888)
 40:    575.12   0.001543    7.80  0.000837  (-0.018558 -0.008725  0.020409)
 41:    590.49   0.004934   24.93  0.002607  ( 0.002059 -0.005819  0.050687)
 42:    610.21   0.002642   13.35  0.001351  (-0.025225  0.015534 -0.021761)
 43:    631.53   0.001420    7.18  0.000702  (-0.025659 -0.006344  0.001776)
 44:    646.84   0.003203   16.19  0.001545  ( 0.001819  0.039266  0.000378)
 45:    671.46   0.012238   61.84  0.005687  (-0.043359  0.061170  0.008103)
 46:    697.49   0.013538   68.41  0.006057  ( 0.054216  0.029040  0.047689)
 47:    710.00   0.010731   54.23  0.004717  (-0.014552 -0.050286 -0.044454)
 48:    711.64   0.007671   38.77  0.003364  (-0.014211  0.045615  0.032883)
 49:    718.63   0.011139   56.29  0.004837  ( 0.043843 -0.049546 -0.021446)
 50:    752.02   0.006208   31.37  0.002576  ( 0.000211  0.050711 -0.002124)
 51:    764.68   0.008847   44.71  0.003610  ( 0.018358 -0.054173  0.018400)
 52:    769.95   0.012618   63.77  0.005114  (-0.021161  0.041943 -0.053920)
 53:    784.04   0.014406   72.80  0.005734  ( 0.010475 -0.072756 -0.018186)
 54:    799.08   0.001345    6.80  0.000525  ( 0.006442 -0.021119 -0.006144)
 55:    827.09   0.029974  151.48  0.011309  ( 0.038084  0.099167  0.004978)
 56:    830.83   0.010183   51.46  0.003825  ( 0.044650  0.038611  0.018451)
 57:    862.81   0.001497    7.57  0.000541  ( 0.019411  0.004871  0.011873)
 58:    872.37   0.003070   15.52  0.001098  ( 0.025592 -0.019506 -0.007930)
 59:    881.69   0.004635   23.43  0.001641  ( 0.015177 -0.008532 -0.036572)
 60:    929.27   0.007534   38.07  0.002530  (-0.008333  0.048239 -0.011554)
 61:    936.63   0.004963   25.08  0.001653  (-0.017046  0.034244  0.013791)
 62:    949.75   0.002562   12.95  0.000842  ( 0.010536  0.025872  0.007845)
 63:    958.35   0.003008   15.20  0.000980  ( 0.005522 -0.030709  0.002457)
 64:    984.42   0.004714   23.82  0.001494  (-0.016155  0.035036 -0.002399)
 65:    989.13   0.000068    0.34  0.000022  (-0.002411  0.003573 -0.001718)
 66:   1000.49   0.000657    3.32  0.000205  ( 0.011191 -0.006548 -0.006074)
 67:   1012.85   0.004767   24.09  0.001469  ( 0.028502 -0.001586 -0.025568)
 68:   1018.26   0.001017    5.14  0.000312  (-0.008705 -0.015138 -0.002592)
 69:   1032.68   0.005519   27.89  0.001668  ( 0.016063 -0.029098  0.023727)
 70:   1045.61   0.010017   50.62  0.002990  (-0.046567  0.028223 -0.004954)
 71:   1072.43   0.011132   56.26  0.003239  ( 0.029930 -0.016292 -0.045585)
 72:   1081.48   0.000986    4.98  0.000284  ( 0.008311  0.009486  0.011196)
 73:   1087.37   0.009835   49.70  0.002823  (-0.006593 -0.028324 -0.044462)
 74:   1147.72   0.013668   69.07  0.003716  ( 0.012351 -0.028687 -0.052353)
 75:   1155.90   0.004505   22.77  0.001216  (-0.013067  0.030383 -0.011060)
 76:   1171.64   0.000268    1.35  0.000071  (-0.000902 -0.004627  0.007013)
 77:   1172.74   0.000123    0.62  0.000033  ( 0.002075 -0.005286  0.000739)
 78:   1174.32   0.000786    3.97  0.000209  ( 0.004302 -0.005993 -0.012425)
 79:   1194.18   0.005424   27.41  0.001417  ( 0.036753 -0.007196  0.003837)
 80:   1206.53   0.002888   14.59  0.000747  (-0.021998  0.008110 -0.014044)
 81:   1206.93   0.003105   15.69  0.000803  ( 0.019637 -0.018543 -0.008560)
 82:   1214.81   0.004378   22.12  0.001125  ( 0.010756  0.006141 -0.031164)
 83:   1239.79   0.005205   26.31  0.001310  (-0.033459 -0.006006 -0.012436)
 84:   1241.48   0.009445   47.73  0.002374  (-0.004670 -0.047889  0.007679)
 85:   1245.73   0.059751  301.96  0.014968  (-0.104271  0.054046 -0.034274)
 86:   1263.37   0.056945  287.78  0.014066  ( 0.104924 -0.047573  0.028174)
 87:   1274.71   0.015797   79.83  0.003867  ( 0.060367  0.002461 -0.014731)
 88:   1309.48   0.070446  356.01  0.016788  ( 0.060376  0.074176  0.087411)
 89:   1315.12   0.003501   17.69  0.000831  ( 0.019402  0.005932  0.020472)
 90:   1326.84   0.006155   31.10  0.001448  ( 0.033629  0.015585  0.008584)
 91:   1352.42   0.021219  107.23  0.004896  ( 0.066428 -0.020922 -0.006772)
 92:   1357.54   0.006456   32.63  0.001484  ( 0.003033 -0.029462 -0.024634)
 93:   1369.17   0.018423   93.10  0.004199  (-0.062563 -0.000267 -0.016873)
 94:   1390.15   0.006442   32.55  0.001446  ( 0.021941 -0.009294 -0.029636)
 95:   1400.24   0.002474   12.50  0.000551  (-0.003974 -0.020045 -0.011565)
 96:   1426.93   0.043053  217.57  0.009416  ( 0.049695 -0.067391 -0.049035)
 97:   1441.65   0.016659   84.19  0.003606  (-0.057545  0.003825  0.016732)
 98:   1465.20   0.004076   20.60  0.000868  ( 0.004340 -0.023358  0.017428)
 99:   1465.63   0.004392   22.19  0.000935  (-0.000462 -0.025911 -0.016233)
100:   1469.04   0.005729   28.95  0.001217  (-0.034763  0.002569  0.001349)
101:   1472.63   0.004801   24.26  0.001017  ( 0.020047 -0.009710  0.022832)
102:   1474.98   0.002470   12.48  0.000523  ( 0.003397  0.018201  0.013407)
103:   1483.23   0.003742   18.91  0.000787  (-0.019616 -0.016145 -0.011913)
104:   1499.90   0.010726   54.20  0.002232  (-0.013463 -0.029119 -0.034675)
105:   1502.68   0.033011  166.83  0.006856  (-0.072418 -0.031894  0.024369)
106:   1543.20   0.032349  163.48  0.006542  ( 0.038840  0.050017  0.050313)
107:   1619.06   0.022584  114.13  0.004353  ( 0.058153 -0.020476  0.023492)
108:   1643.93   0.118180  597.23  0.022434  (-0.037702  0.097838 -0.106958)
109:   1652.83   0.022069  111.53  0.004167  ( 0.013411 -0.005261  0.062922)
110:   1665.78   0.013187   66.64  0.002470  (-0.036276 -0.026310 -0.021499)
111:   1706.59   0.040826  206.32  0.007465  ( 0.083313  0.022379 -0.004849)
112:   1794.48   0.107532  543.42  0.018700  (-0.070030 -0.089109 -0.076521)
113:   2239.54   0.000579    2.93  0.000081  ( 0.005060  0.007414  0.000302)
114:   3028.76   0.003030   15.31  0.000312  (-0.008862 -0.001824  0.015176)
115:   3039.99   0.011616   58.70  0.001192  ( 0.010485 -0.013425 -0.030038)
116:   3072.64   0.006571   33.21  0.000667  (-0.018238  0.017868  0.003933)
117:   3089.99   0.002156   10.90  0.000218  ( 0.012594 -0.006232  0.004505)
118:   3112.86   0.007104   35.90  0.000712  (-0.008823  0.021590 -0.012971)
119:   3143.82   0.000248    1.26  0.000025  ( 0.004595  0.001202 -0.001449)
120:   3156.36   0.003981   20.12  0.000394  (-0.006389 -0.011617  0.014760)
121:   3167.10   0.003437   17.37  0.000339  ( 0.014467  0.009770  0.005821)
122:   3185.97   0.000927    4.68  0.000091  ( 0.005507 -0.002115 -0.007481)
123:   3188.17   0.002891   14.61  0.000283  (-0.014749  0.003547 -0.007268)
124:   3188.79   0.002153   10.88  0.000211  ( 0.010447  0.004420  0.009058)
125:   3196.44   0.001722    8.70  0.000168  (-0.010914 -0.000267  0.006995)
126:   3212.09   0.000230    1.16  0.000022  ( 0.003415  0.003142 -0.000902)
127:   3214.82   0.003183   16.09  0.000309  (-0.011328 -0.009242 -0.009761)
128:   3215.54   0.000693    3.50  0.000067  (-0.005646  0.001393 -0.005779)
129:   3230.59   0.000332    1.68  0.000032  (-0.003188  0.001652  0.004377)
130:   3246.96   0.000605    3.06  0.000058  ( 0.001740  0.004972 -0.005517)
131:   3450.29   0.031390  158.63  0.002839  ( 0.017826  0.031354 -0.039220)

--------------------------
THERMOCHEMISTRY AT 298.15K
--------------------------

Temperature         ... 298.15 K
Pressure            ... 1.00 atm
Total Mass          ... 354.36 AMU

Throughout the following assumptions are being made:
  (1) The electronic state is orbitally nondegenerate
  (2) There are no thermally accessible electronically excited states
  (3) Hindered rotations indicated by low frequency modes are not
      treated as such but are treated as vibrations and this may
      cause some error
  (4) All equations used are the standard statistical mechanics
      equations for an ideal gas
  (5) All vibrations are strictly harmonic

freq.      26.18  E(vib)   ...       0.56
freq.      48.38  E(vib)   ...       0.53
freq.      61.39  E(vib)   ...       0.51
freq.      69.87  E(vib)   ...       0.50
freq.      71.95  E(vib)   ...       0.50
freq.      86.89  E(vib)   ...       0.48
freq.      97.95  E(vib)   ...       0.46
freq.     100.27  E(vib)   ...       0.46
freq.     111.40  E(vib)   ...       0.45
freq.     120.26  E(vib)   ...       0.44
freq.     123.43  E(vib)   ...       0.43
freq.     145.25  E(vib)   ...       0.41
freq.     149.65  E(vib)   ...       0.40
freq.     160.74  E(vib)   ...       0.39
freq.     191.94  E(vib)   ...       0.36
freq.     200.18  E(vib)   ...       0.35
freq.     213.63  E(vib)   ...       0.34
freq.     236.69  E(vib)   ...       0.32
freq.     249.12  E(vib)   ...       0.31
freq.     274.44  E(vib)   ...       0.28
freq.     288.72  E(vib)   ...       0.27
freq.     301.33  E(vib)   ...       0.26
freq.     305.68  E(vib)   ...       0.26
freq.     337.27  E(vib)   ...       0.24
freq.     373.98  E(vib)   ...       0.21
freq.     387.93  E(vib)   ...       0.20
freq.     421.67  E(vib)   ...       0.18
freq.     469.07  E(vib)   ...       0.16
freq.     478.93  E(vib)   ...       0.15
freq.     486.52  E(vib)   ...       0.15
freq.     493.21  E(vib)   ...       0.14
freq.     516.97  E(vib)   ...       0.13
freq.     554.34  E(vib)   ...       0.12
freq.     567.65  E(vib)   ...       0.11
freq.     575.12  E(vib)   ...       0.11
freq.     590.49  E(vib)   ...       0.10
freq.     610.21  E(vib)   ...       0.10
freq.     631.53  E(vib)   ...       0.09
freq.     646.84  E(vib)   ...       0.09
freq.     671.46  E(vib)   ...       0.08
freq.     697.49  E(vib)   ...       0.07
freq.     710.00  E(vib)   ...       0.07
freq.     711.64  E(vib)   ...       0.07
freq.     718.63  E(vib)   ...       0.07
freq.     752.02  E(vib)   ...       0.06
freq.     764.68  E(vib)   ...       0.06
freq.     769.95  E(vib)   ...       0.05
freq.     784.04  E(vib)   ...       0.05
freq.     799.08  E(vib)   ...       0.05
freq.     827.09  E(vib)   ...       0.04
freq.     830.83  E(vib)   ...       0.04
freq.     862.81  E(vib)   ...       0.04
freq.     872.37  E(vib)   ...       0.04
freq.     881.69  E(vib)   ...       0.04
freq.     929.27  E(vib)   ...       0.03
freq.     936.63  E(vib)   ...       0.03
freq.     949.75  E(vib)   ...       0.03
freq.     958.35  E(vib)   ...       0.03
freq.     984.42  E(vib)   ...       0.02
freq.     989.13  E(vib)   ...       0.02
freq.    1000.49  E(vib)   ...       0.02
freq.    1012.85  E(vib)   ...       0.02
freq.    1018.26  E(vib)   ...       0.02
freq.    1032.68  E(vib)   ...       0.02
freq.    1045.61  E(vib)   ...       0.02
freq.    1072.43  E(vib)   ...       0.02
freq.    1081.48  E(vib)   ...       0.02
freq.    1087.37  E(vib)   ...       0.02
freq.    1147.72  E(vib)   ...       0.01
freq.    1155.90  E(vib)   ...       0.01
freq.    1171.64  E(vib)   ...       0.01
freq.    1172.74  E(vib)   ...       0.01
freq.    1174.32  E(vib)   ...       0.01
freq.    1194.18  E(vib)   ...       0.01
freq.    1206.53  E(vib)   ...       0.01
freq.    1206.93  E(vib)   ...       0.01
freq.    1214.81  E(vib)   ...       0.01
freq.    1239.79  E(vib)   ...       0.01
freq.    1241.48  E(vib)   ...       0.01
freq.    1245.73  E(vib)   ...       0.01
freq.    1263.37  E(vib)   ...       0.01
freq.    1274.71  E(vib)   ...       0.01
freq.    1309.48  E(vib)   ...       0.01
freq.    1315.12  E(vib)   ...       0.01
freq.    1326.84  E(vib)   ...       0.01
freq.    1352.42  E(vib)   ...       0.01
freq.    1357.54  E(vib)   ...       0.01
freq.    1369.17  E(vib)   ...       0.01
freq.    1390.15  E(vib)   ...       0.00
freq.    1400.24  E(vib)   ...       0.00
freq.    1426.93  E(vib)   ...       0.00
freq.    1441.65  E(vib)   ...       0.00
freq.    1465.20  E(vib)   ...       0.00
freq.    1465.63  E(vib)   ...       0.00
freq.    1469.04  E(vib)   ...       0.00
freq.    1472.63  E(vib)   ...       0.00
freq.    1474.98  E(vib)   ...       0.00
freq.    1483.23  E(vib)   ...       0.00
freq.    1499.90  E(vib)   ...       0.00
freq.    1502.68  E(vib)   ...       0.00
freq.    1543.20  E(vib)   ...       0.00
freq.    1619.06  E(vib)   ...       0.00
freq.    1643.93  E(vib)   ...       0.00
freq.    1652.83  E(vib)   ...       0.00
freq.    1665.78  E(vib)   ...       0.00
freq.    1706.59  E(vib)   ...       0.00
freq.    1794.48  E(vib)   ...       0.00
freq.    2239.54  E(vib)   ...       0.00
freq.    3028.76  E(vib)   ...       0.00
freq.    3039.99  E(vib)   ...       0.00
freq.    3072.64  E(vib)   ...       0.00
freq.    3089.99  E(vib)   ...       0.00
freq.    3112.86  E(vib)   ...       0.00
freq.    3143.82  E(vib)   ...       0.00
freq.    3156.36  E(vib)   ...       0.00
freq.    3167.10  E(vib)   ...       0.00
freq.    3185.97  E(vib)   ...       0.00
freq.    3188.17  E(vib)   ...       0.00
freq.    3188.79  E(vib)   ...       0.00
freq.    3196.44  E(vib)   ...       0.00
freq.    3212.09  E(vib)   ...       0.00
freq.    3214.82  E(vib)   ...       0.00
freq.    3215.54  E(vib)   ...       0.00
freq.    3230.59  E(vib)   ...       0.00
freq.    3246.96  E(vib)   ...       0.00
freq.    3450.29  E(vib)   ...       0.00

------------
INNER ENERGY
------------

The inner energy is: U= E(el) + E(ZPE) + E(vib) + E(rot) + E(trans)
    E(el)   - is the total energy from the electronic structure calculation
              = E(kin-el) + E(nuc-el) + E(el-el) + E(nuc-nuc)
    E(ZPE)  - the the zero temperature vibrational energy from the frequency calculation
    E(vib)  - the the finite temperature correction to E(ZPE) due to population
              of excited vibrational states
    E(rot)  - is the rotational thermal energy
    E(trans)- is the translational thermal energy

Summary of contributions to the inner energy U:
Electronic energy                ...  -1219.42643231 Eh
Zero point energy                ...      0.34393231 Eh     215.82 kcal/mol
Thermal vibrational correction   ...      0.02058443 Eh      12.92 kcal/mol

Rotational constants in cm-1:     0.011368     0.006899     0.005623

                             ****ORCA TERMINATED NORMALLY****
TOTAL RUN TIME: 0 days 1 hours 39 minutes 24 seconds 123 msec
