                         Program Version 5.0.4 -  RELEASE  -
|  1> %pal nprocs 24 end
|  2> ! PBE0 D3BJ def2-TZVP TightSCF OPT FREQ TightOpt
|  3> ! CPCM(dmso)
|  4> %scf
|  5> MaxIter 800
|  6> end
|  7>
|  8> %geom
|  9> MaxIter 800
| 10> MaxStep 0.15
| 11> end
| 12>
| 13> *xyz 0 1
| 14> C       4.11767100      0.65655600      0.70395100
| 15> C       3.97892800      1.52989100     -0.43595900
| 16> C       2.73272700      1.74135600     -0.92760400
| 17> N       1.62706700      1.19306100     -0.34691800
| 18> C       1.68169400      0.25211700      0.73574600
| 19> C       3.05082200      0.05723300      1.27789100
| 20> C       0.33542500      1.13800400     -0.96395500
| 21> C      -0.62174200      2.13064000     -0.31142900
| 22> O      -0.32267700      2.88268600      0.58068500
| 23> O      -1.79265400      2.12367500     -0.93021800
| 24> C      -2.79270300      3.00121900     -0.42579900
| 25> H       5.11215000      0.49377700      1.12913200
| 26> H       2.53238400      2.36863500     -1.79960200
| 27> H       0.95727900      0.52343800      1.52381900
| 28> H       3.15425900     -0.57861500      2.15917500
| 29> H       0.40605900      1.44945000     -2.01682000
| 30> H      -3.67118400      2.86311400     -1.06519200
| 31> H      -2.44878500      4.04417000     -0.46770700
| 32> C       0.95203000     -1.03175500      0.06425200
| 33> C      -0.05876600     -0.39156100     -0.92612600
| 34> C      -1.49951300     -0.76807400     -0.71486800
| 35> C      -2.19976100     -1.44662000     -1.71024600
| 36> C      -3.53399400     -1.81765400     -1.53161300
| 37> C      -4.17301500     -1.50932900     -0.33423400
| 38> C      -3.49480200     -0.83260800      0.68235700
| 39> C      -2.16495100     -0.45949600      0.48722700
| 40> O      -1.42140400      0.21154900      1.38832900
| 41> C      -1.94870000      0.50198900      2.66315300
| 42> N       2.04210300     -1.76855600     -0.67370100
| 43> O       2.34913500     -1.35832500     -1.76750000
| 44> H       0.22639800     -0.78188400     -1.90916300
| 45> H      -1.68513900     -1.68840300     -2.64425300
| 46> H      -4.06609400     -2.34735000     -2.32448000
| 47> H      -5.21582700     -1.79669100     -0.17781100
| 48> H      -4.00669600     -0.59647400      1.61576000
| 49> H      -2.19402200     -0.42428100      3.20725900
| 50> H      -2.84725000      1.13524600      2.59017000
| 51> H      -1.16507000      1.04741900      3.20253500
| 52> O       2.61404800     -2.64704000     -0.07120900
| 53> H      -3.03869900      2.74222700      0.61395100
| 54> H       4.84280300      2.00692100     -0.89678500
| 55> C       0.41183300     -1.94057400      1.05847100
| 56> N      -0.01258800     -2.63366700      1.88183700
| 57> *
| 58>
| 59>                          ****END OF INPUT****
 Total Charge           Charge          ....    0
 Multiplicity           Mult            ....    1
 Number of Electrons    NEL             ....  186
Dispersion correction           -0.060163478
FINAL SINGLE POINT ENERGY     -1235.515713717833
Dispersion correction            ... done
Dispersion correction           -0.059800930
FINAL SINGLE POINT ENERGY     -1235.517118706961
Dispersion correction            ... done
Dispersion correction           -0.060594239
FINAL SINGLE POINT ENERGY     -1235.514221709288
Dispersion correction            ... done
FINAL SINGLE POINT ENERGY     -1235.517423618262
FINAL SINGLE POINT ENERGY     -1235.516204146762
FINAL SINGLE POINT ENERGY     -1235.517515111801
FINAL SINGLE POINT ENERGY     -1235.517524737876
FINAL SINGLE POINT ENERGY     -1235.517527217750
FINAL SINGLE POINT ENERGY     -1235.517525026334
FINAL SINGLE POINT ENERGY     -1235.517521804983
Dispersion correction           -0.060075766
FINAL SINGLE POINT ENERGY     -1235.517522874678
Dispersion correction            ... done
Dispersion correction           -0.060079186
FINAL SINGLE POINT ENERGY     -1235.517522794591
Dispersion correction            ... done
                    ***********************HURRAY********************

CARTESIAN COORDINATES (ANGSTROEM)
---------------------------------
  C      4.119739    0.650291    0.697284
  C      3.964110    1.549189   -0.413272
  C      2.720235    1.761866   -0.886815
  N      1.624192    1.194905   -0.313578
  C      1.697332    0.224516    0.737219
  C      3.069505    0.026967    1.256701
  C      0.340404    1.141900   -0.943941
  C     -0.626477    2.142348   -0.322053
  O     -0.338891    2.912666    0.556854
  O     -1.787814    2.120921   -0.956132
  C     -2.791639    3.017152   -0.470910
  H      5.110601    0.486150    1.107035
  H      2.510023    2.403555   -1.734171
  H      0.986444    0.464281    1.536072
  H      3.185946   -0.629860    2.109626
  H      0.431165    1.445391   -1.989674
  H     -3.669701    2.834656   -1.084448
  H     -2.459241    4.049946   -0.575507
  C      0.961074   -1.045543    0.043787
  C     -0.060121   -0.384910   -0.916613
  C     -1.494656   -0.763247   -0.686063
  C     -2.189175   -1.442714   -1.675363
  C     -3.514586   -1.819220   -1.498907
  C     -4.152206   -1.514096   -0.308198
  C     -3.480111   -0.836196    0.701846
  C     -2.158007   -0.460745    0.509849
  O     -1.421453    0.213785    1.415822
  C     -1.990952    0.513652    2.676946
  N      2.033901   -1.781826   -0.713983
  O      2.341274   -1.351764   -1.800767
  H      0.199300   -0.758343   -1.905135
  H     -1.678403   -1.678279   -2.603228
  H     -4.039238   -2.347463   -2.285585
  H     -5.185635   -1.802494   -0.152804
  H     -3.989784   -0.602064    1.626900
  H     -2.265031   -0.402593    3.206242
  H     -2.869922    1.153892    2.567229
  H     -1.220982    1.043448    3.233649
  O      2.595047   -2.685840   -0.136897
  H     -3.008425    2.804485    0.576107
  H      4.812079    2.042665   -0.864478
  C      0.427220   -1.959932    1.028981
  N      0.011636   -2.656084    1.842879

 Multiplicity           Mult            ....    1
 Number of Electrons    NEL             ....  186
 Basis Dimension        Dim             ....  908

ORBITAL ENERGIES
----------------

  NO   OCC          E(Eh)            E(eV)
   0   2.0000     -19.265367      -524.2373
   1   2.0000     -19.264019      -524.2006
   2   2.0000     -19.262734      -524.1656
   3   2.0000     -19.252806      -523.8955
   4   2.0000     -19.204318      -522.5761
   5   2.0000     -14.640303      -398.3829
   6   2.0000     -14.436573      -392.8391
   7   2.0000     -14.404741      -391.9729
   8   2.0000     -10.362049      -281.9657
   9   2.0000     -10.342189      -281.4253
  10   2.0000     -10.304650      -280.4038
  11   2.0000     -10.295782      -280.1625
  12   2.0000     -10.294932      -280.1393
  13   2.0000     -10.288274      -279.9582
  14   2.0000     -10.279589      -279.7218
  15   2.0000     -10.271644      -279.5057
  16   2.0000     -10.271616      -279.5049
  17   2.0000     -10.269676      -279.4521
  18   2.0000     -10.245854      -278.8039
  19   2.0000     -10.237801      -278.5847
  20   2.0000     -10.234280      -278.4889
  21   2.0000     -10.233220      -278.4601
  22   2.0000     -10.230336      -278.3816
  23   2.0000     -10.229056      -278.3468
  24   2.0000     -10.224097      -278.2118
  25   2.0000     -10.213422      -277.9213
  26   2.0000      -1.298286       -35.3282
  27   2.0000      -1.156382       -31.4668
  28   2.0000      -1.120085       -30.4791
  29   2.0000      -1.116541       -30.3826
  30   2.0000      -1.064369       -28.9629
  31   2.0000      -1.032872       -28.1059
  32   2.0000      -0.964158       -26.2361
  33   2.0000      -0.910236       -24.7688
  34   2.0000      -0.889030       -24.1917
  35   2.0000      -0.863337       -23.4926
  36   2.0000      -0.818548       -22.2738
  37   2.0000      -0.801909       -21.8211
  38   2.0000      -0.787683       -21.4340
  39   2.0000      -0.783005       -21.3066
  40   2.0000      -0.752785       -20.4843
  41   2.0000      -0.726299       -19.7636
  42   2.0000      -0.716637       -19.5007
  43   2.0000      -0.679324       -18.4853
  44   2.0000      -0.674007       -18.3407
  45   2.0000      -0.655028       -17.8242
  46   2.0000      -0.637100       -17.3364
  47   2.0000      -0.618634       -16.8339
  48   2.0000      -0.605811       -16.4850
  49   2.0000      -0.600818       -16.3491
  50   2.0000      -0.586374       -15.9561
  51   2.0000      -0.570724       -15.5302
  52   2.0000      -0.559161       -15.2155
  53   2.0000      -0.553921       -15.0729
  54   2.0000      -0.543884       -14.7998
  55   2.0000      -0.528095       -14.3702
  56   2.0000      -0.525778       -14.3072
  57   2.0000      -0.520221       -14.1559
  58   2.0000      -0.507879       -13.8201
  59   2.0000      -0.504849       -13.7376
  60   2.0000      -0.491720       -13.3804
  61   2.0000      -0.486804       -13.2466
  62   2.0000      -0.485451       -13.2098
  63   2.0000      -0.471813       -12.8387
  64   2.0000      -0.466042       -12.6816
  65   2.0000      -0.461245       -12.5511
  66   2.0000      -0.449952       -12.2438
  67   2.0000      -0.445077       -12.1112
  68   2.0000      -0.438275       -11.9261
  69   2.0000      -0.428970       -11.6729
  70   2.0000      -0.416925       -11.3451
  71   2.0000      -0.413664       -11.2564
  72   2.0000      -0.406830       -11.0704
  73   2.0000      -0.401945       -10.9375
  74   2.0000      -0.397503       -10.8166
  75   2.0000      -0.386260       -10.5107
  76   2.0000      -0.383398       -10.4328
  77   2.0000      -0.382246       -10.4015
  78   2.0000      -0.374119       -10.1803
  79   2.0000      -0.373050       -10.1512
  80   2.0000      -0.368503       -10.0275
  81   2.0000      -0.362438        -9.8624
  82   2.0000      -0.354312        -9.6413
  83   2.0000      -0.349296        -9.5048
  84   2.0000      -0.346029        -9.4159
  85   2.0000      -0.343155        -9.3377
  86   2.0000      -0.333249        -9.0682
  87   2.0000      -0.331101        -9.0097
  88   2.0000      -0.315875        -8.5954
  89   2.0000      -0.302512        -8.2318
  90   2.0000      -0.275814        -7.5053
  91   2.0000      -0.244993        -6.6666
  92   2.0000      -0.209243        -5.6938
  93   0.0000      -0.083160        -2.2629
  94   0.0000      -0.033991        -0.9249
  95   0.0000      -0.021028        -0.5722
  96   0.0000      -0.006428        -0.1749
  97   0.0000      -0.000488        -0.0133

MULLIKEN ATOMIC CHARGES
-----------------------
   0 C :   -0.106919
   1 C :   -0.228795
   2 C :   -0.132382
   3 N :    0.056718
   4 C :   -0.017927
   5 C :   -0.324905
   6 C :   -0.028405
   7 C :    0.281805
   8 O :   -0.381565
   9 O :   -0.215721
  10 C :   -0.259856
  11 H :    0.156636
  12 H :    0.175318
  13 H :    0.155748
  14 H :    0.158570
  15 H :    0.156590
  16 H :    0.162472
  17 H :    0.159177
  18 C :    0.230027
  19 C :    0.149367
  20 C :   -0.006144
  21 C :   -0.256286
  22 C :   -0.197551
  23 C :   -0.144030
  24 C :   -0.303798
  25 C :    0.268619
  26 O :   -0.253157
  27 C :   -0.292838
  28 N :    0.481601
  29 O :   -0.329394
  30 H :    0.151893
  31 H :    0.148746
  32 H :    0.148083
  33 H :    0.153123
  34 H :    0.167205
  35 H :    0.159739
  36 H :    0.159022
  37 H :    0.164510
  38 O :   -0.320710
  39 H :    0.155281
  40 H :    0.160600
  41 C :   -0.326224
  42 N :   -0.034246
Sum of atomic charges:   -0.0000000

LOEWDIN ATOMIC CHARGES
----------------------
   0 C :   -0.147848
   1 C :   -0.214893
   2 C :   -0.170404
   3 N :    0.268006
   4 C :   -0.175670
   5 C :   -0.155752
   6 C :   -0.168344
   7 C :   -0.487387
   8 O :    0.089644
   9 O :    0.281409
  10 C :   -0.300588
  11 H :    0.158404
  12 H :    0.162954
  13 H :    0.178649
  14 H :    0.156746
  15 H :    0.189114
  16 H :    0.123534
  17 H :    0.120644
  18 C :   -0.182798
  19 C :   -0.104086
  20 C :   -0.116016
  21 C :   -0.104923
  22 C :   -0.161121
  23 C :   -0.138389
  24 C :   -0.133864
  25 C :   -0.241159
  26 O :    0.274459
  27 C :   -0.323511
  28 N :   -0.031004
  29 O :    0.001063
  30 H :    0.191056
  31 H :    0.161188
  32 H :    0.153263
  33 H :    0.155830
  34 H :    0.162189
  35 H :    0.121040
  36 H :    0.119102
  37 H :    0.123687
  38 O :   -0.001244
  39 H :    0.119831
  40 H :    0.152769
  41 C :   -0.155054
  42 N :    0.049472

  Mayer bond orders larger than 0.100000
B(  0-C ,  1-C ) :   1.1132 B(  0-C ,  5-C ) :   1.8065 B(  0-C , 11-H ) :   0.9565
B(  1-C ,  2-C ) :   1.6675 B(  1-C , 40-H ) :   0.9655 B(  2-C ,  3-N ) :   1.1905
B(  2-C , 12-H ) :   0.9455 B(  3-N ,  4-C ) :   0.9831 B(  3-N ,  6-C ) :   0.9725
B(  4-C ,  5-C ) :   0.9727 B(  4-C , 13-H ) :   0.9156 B(  4-C , 18-C ) :   0.8122
B(  5-C , 14-H ) :   0.9657 B(  6-C ,  7-C ) :   0.9655 B(  6-C , 15-H ) :   0.8984
B(  6-C , 19-C ) :   0.9666 B(  6-C , 20-C ) :   0.1039 B(  7-C ,  8-O ) :   2.0190
B(  7-C ,  9-O ) :   1.2453 B(  9-O , 10-C ) :   0.8836 B( 10-C , 16-H ) :   0.9646
B( 10-C , 17-H ) :   0.9623 B( 10-C , 39-H ) :   0.9698 B( 18-C , 19-C ) :   1.0392
B( 18-C , 28-N ) :   0.8731 B( 18-C , 41-C ) :   0.9381 B( 19-C , 20-C ) :   0.7748
B( 19-C , 30-H ) :   0.8962 B( 20-C , 21-C ) :   1.3784 B( 20-C , 25-C ) :   1.2152
B( 21-C , 22-C ) :   1.4007 B( 21-C , 31-H ) :   0.9809 B( 22-C , 23-C ) :   1.3995
B( 22-C , 32-H ) :   0.9827 B( 23-C , 24-C ) :   1.3899 B( 23-C , 33-H ) :   0.9691
B( 24-C , 25-C ) :   1.3908 B( 24-C , 34-H ) :   0.9594 B( 25-C , 26-O ) :   1.0708
B( 26-O , 27-C ) :   0.9187 B( 27-C , 35-H ) :   0.9602 B( 27-C , 36-H ) :   0.9610
B( 27-C , 37-H ) :   0.9639 B( 28-N , 29-O ) :   1.5775 B( 28-N , 38-O ) :   1.6171
B( 29-O , 38-O ) :   0.1996 B( 41-C , 42-N ) :   3.0654

Dispersion correction           -0.060078352
FINAL SINGLE POINT ENERGY     -1235.517521765115

DIPOLE MOMENT
-------------
                                X             Y             Z
Electronic contribution:      9.96135      -7.96171      -3.71608
Nuclear contribution   :    -12.22475      10.12204       2.86591
                        -----------------------------------------
Total Dipole Moment    :     -2.26341       2.16033      -0.85017
                        -----------------------------------------
Magnitude (a.u.)       :      3.24235
Magnitude (Debye)      :      8.24140

Dispersion correction in the Hessian             ... done   (      0.7 sec)

VIBRATIONAL FREQUENCIES
-----------------------

Scaling factor for frequencies =  1.000000000  (already applied!)

   0:         0.00 cm**-1
   1:         0.00 cm**-1
   2:         0.00 cm**-1
   3:         0.00 cm**-1
   4:         0.00 cm**-1
   5:         0.00 cm**-1
   6:        29.17 cm**-1
   7:        49.83 cm**-1
   8:        62.41 cm**-1
   9:        72.21 cm**-1
  10:        76.16 cm**-1
  11:        92.57 cm**-1
  12:        95.55 cm**-1
  13:        98.99 cm**-1
  14:       114.70 cm**-1
  15:       120.44 cm**-1
  16:       126.97 cm**-1
  17:       146.40 cm**-1
  18:       151.56 cm**-1
  19:       175.09 cm**-1
  20:       192.43 cm**-1
  21:       202.53 cm**-1
  22:       216.62 cm**-1
  23:       236.36 cm**-1
  24:       246.68 cm**-1
  25:       277.19 cm**-1
  26:       284.64 cm**-1
  27:       301.71 cm**-1
  28:       309.72 cm**-1
  29:       338.61 cm**-1
  30:       373.36 cm**-1
  31:       389.94 cm**-1
  32:       428.99 cm**-1
  33:       473.64 cm**-1
  34:       482.92 cm**-1
  35:       494.22 cm**-1
  36:       504.02 cm**-1
  37:       522.48 cm**-1
  38:       553.93 cm**-1
  39:       565.79 cm**-1
  40:       579.97 cm**-1
  41:       599.17 cm**-1
  42:       611.36 cm**-1
  43:       630.39 cm**-1
  44:       648.13 cm**-1
  45:       670.08 cm**-1
  46:       710.96 cm**-1
  47:       717.88 cm**-1
  48:       743.61 cm**-1
  49:       766.76 cm**-1
  50:       773.59 cm**-1
  51:       783.14 cm**-1
  52:       797.61 cm**-1
  53:       814.08 cm**-1
  54:       831.51 cm**-1
  55:       862.47 cm**-1
  56:       872.32 cm**-1
  57:       880.84 cm**-1
  58:       928.80 cm**-1
  59:       932.98 cm**-1
  60:       953.08 cm**-1
  61:       960.94 cm**-1
  62:       986.72 cm**-1
  63:       992.74 cm**-1
  64:      1004.34 cm**-1
  65:      1013.25 cm**-1
  66:      1020.39 cm**-1
  67:      1034.48 cm**-1
  68:      1046.18 cm**-1
  69:      1069.70 cm**-1
  70:      1079.69 cm**-1
  71:      1083.75 cm**-1
  72:      1146.96 cm**-1
  73:      1160.10 cm**-1
  74:      1171.76 cm**-1
  75:      1172.87 cm**-1
  76:      1173.37 cm**-1
  77:      1197.54 cm**-1
  78:      1205.53 cm**-1
  79:      1207.16 cm**-1
  80:      1207.49 cm**-1
  81:      1234.27 cm**-1
  82:      1240.33 cm**-1
  83:      1247.02 cm**-1
  84:      1264.16 cm**-1
  85:      1274.08 cm**-1
  86:      1308.47 cm**-1
  87:      1319.20 cm**-1
  88:      1327.25 cm**-1
  89:      1357.16 cm**-1
  90:      1361.15 cm**-1
  91:      1371.04 cm**-1
  92:      1388.17 cm**-1
  93:      1403.74 cm**-1
  94:      1422.91 cm**-1
  95:      1446.79 cm**-1
  96:      1464.85 cm**-1
  97:      1465.11 cm**-1
  98:      1469.33 cm**-1
  99:      1472.09 cm**-1
 100:      1477.53 cm**-1
 101:      1483.98 cm**-1
 102:      1500.67 cm**-1
 103:      1503.71 cm**-1
 104:      1541.39 cm**-1
 105:      1616.24 cm**-1
 106:      1650.89 cm**-1
 107:      1655.77 cm**-1
 108:      1666.22 cm**-1
 109:      1706.45 cm**-1
 110:      1796.01 cm**-1
 111:      2378.73 cm**-1
 112:      3042.50 cm**-1
 113:      3043.48 cm**-1
 114:      3074.39 cm**-1
 115:      3102.58 cm**-1
 116:      3118.29 cm**-1
 117:      3142.71 cm**-1
 118:      3158.38 cm**-1
 119:      3170.17 cm**-1
 120:      3188.09 cm**-1
 121:      3191.18 cm**-1
 122:      3192.04 cm**-1
 123:      3197.91 cm**-1
 124:      3216.37 cm**-1
 125:      3217.34 cm**-1
 126:      3218.59 cm**-1
 127:      3229.94 cm**-1
 128:      3248.96 cm**-1

IR SPECTRUM
-----------

 Mode   freq       eps      Int      T**2         TX        TY        TZ
       cm**-1   L/(mol*cm) km/mol    a.u.
----------------------------------------------------------------------------
  6:     29.17   0.000183    0.93  0.001962  ( 0.009420 -0.011444 -0.041743)
  7:     49.83   0.000076    0.38  0.000474  ( 0.017816 -0.008748  0.008937)
  8:     62.41   0.000063    0.32  0.000316  ( 0.006650  0.013224  0.009860)
  9:     72.21   0.001065    5.38  0.004601  ( 0.013916 -0.053325  0.039544)
 10:     76.16   0.000854    4.32  0.003500  (-0.036439  0.045525  0.009967)
 11:     92.57   0.000318    1.61  0.001074  (-0.020384 -0.017082  0.019138)
 12:     95.55   0.000492    2.48  0.001605  ( 0.037219 -0.009351  0.011524)
 13:     98.99   0.000635    3.21  0.002001  (-0.019089 -0.040454  0.000172)
 14:    114.70   0.000346    1.75  0.000942  (-0.011407  0.014316 -0.024635)
 15:    120.44   0.000602    3.04  0.001560  (-0.017533  0.031762 -0.015603)
 16:    126.97   0.000318    1.61  0.000782  (-0.000023 -0.027911  0.001801)
 17:    146.40   0.001424    7.20  0.003036  ( 0.029944  0.045348  0.009104)
 18:    151.56   0.000125    0.63  0.000258  (-0.004549  0.008747  0.012689)
 19:    175.09   0.000903    4.56  0.001609  (-0.036964  0.011888  0.010043)
 20:    192.43   0.000606    3.06  0.000983  ( 0.017660  0.004239  0.025551)
 21:    202.53   0.000693    3.50  0.001068  ( 0.017366 -0.027421  0.003775)
 22:    216.62   0.002147   10.85  0.003092  ( 0.019903 -0.036070  0.037352)
 23:    236.36   0.000249    1.26  0.000329  (-0.013778 -0.011374 -0.003184)
 24:    246.68   0.000686    3.47  0.000868  ( 0.015405 -0.019651  0.015622)
 25:    277.19   0.004212   21.29  0.004742  ( 0.063542 -0.000957  0.026523)
 26:    284.64   0.000321    1.62  0.000352  ( 0.015609  0.000614  0.010403)
 27:    301.71   0.000319    1.61  0.000330  (-0.000116 -0.018164  0.000086)
 28:    309.72   0.001647    8.32  0.001660  ( 0.031318  0.025714 -0.004219)
 29:    338.61   0.000604    3.05  0.000556  (-0.021289 -0.001991  0.009953)
 30:    373.36   0.001644    8.31  0.001374  (-0.036453 -0.002915 -0.006052)
 31:    389.94   0.013986   70.68  0.011193  (-0.005338 -0.105563 -0.004532)
 32:    428.99   0.000836    4.22  0.000608  (-0.017074 -0.014410 -0.010422)
 33:    473.64   0.002541   12.84  0.001674  ( 0.030070 -0.012788 -0.024632)
 34:    482.92   0.003876   19.59  0.002504  (-0.040868 -0.012380  0.026097)
 35:    494.22   0.002433   12.30  0.001536  (-0.006289  0.028609 -0.026045)
 36:    504.02   0.000613    3.10  0.000380  ( 0.008068  0.011447  0.013543)
 37:    522.48   0.003635   18.37  0.002171  (-0.040926 -0.015488  0.016010)
 38:    553.93   0.001261    6.37  0.000711  ( 0.019808  0.014052 -0.010990)
 39:    565.79   0.002822   14.26  0.001556  ( 0.031478 -0.016718  0.016910)
 40:    579.97   0.003048   15.40  0.001640  ( 0.019462  0.024787  0.025430)
 41:    599.17   0.003804   19.22  0.001981  ( 0.009197  0.030389 -0.031194)
 42:    611.36   0.002490   12.58  0.001271  (-0.017373  0.022020 -0.022006)
 43:    630.39   0.002327   11.76  0.001152  (-0.025197 -0.022726  0.000680)
 44:    648.13   0.004704   23.77  0.002265  (-0.005183 -0.046854 -0.006522)
 45:    670.08   0.007274   36.76  0.003387  (-0.036120  0.044406  0.010529)
 46:    710.96   0.001006    5.08  0.000441  ( 0.014212 -0.015271 -0.002500)
 47:    717.88   0.017509   88.48  0.007611  (-0.001938 -0.064968 -0.058195)
 48:    743.61   0.030762  155.46  0.012909  (-0.020077 -0.109078 -0.024667)
 49:    766.76   0.009002   45.49  0.003664  (-0.022237  0.046719 -0.031407)
 50:    773.59   0.009938   50.22  0.004009  ( 0.018688 -0.050267  0.033657)
 51:    783.14   0.022773  115.09  0.009075  ( 0.001169  0.091435  0.026698)
 52:    797.61   0.001794    9.07  0.000702  (-0.002272  0.026304  0.002192)
 53:    814.08   0.027671  139.84  0.010607  (-0.047569 -0.090362 -0.013387)
 54:    831.51   0.003329   16.82  0.001249  (-0.030607 -0.008634 -0.015429)
 55:    862.47   0.001782    9.00  0.000645  ( 0.018676  0.008044  0.015204)
 56:    872.32   0.003859   19.50  0.001381  (-0.023964  0.021803  0.018190)
 57:    880.84   0.002578   13.03  0.000913  (-0.009166 -0.000849  0.028787)
 58:    928.80   0.005579   28.20  0.001875  (-0.008620  0.040787 -0.011692)
 59:    932.98   0.007729   39.06  0.002585  ( 0.016203 -0.045238 -0.016617)
 60:    953.08   0.001011    5.11  0.000331  (-0.012858 -0.011904 -0.004901)
 61:    960.94   0.002429   12.28  0.000789  (-0.006129  0.027408 -0.000436)
 62:    986.72   0.006779   34.26  0.002144  ( 0.024374 -0.039326  0.001798)
 63:    992.74   0.000034    0.17  0.000011  ( 0.001178 -0.001248  0.002775)
 64:   1004.34   0.000617    3.12  0.000192  (-0.011060  0.006134  0.005632)
 65:   1013.25   0.005055   25.55  0.001557  (-0.027489  0.021705  0.018170)
 66:   1020.39   0.003882   19.62  0.001187  (-0.028304 -0.009225  0.017347)
 67:   1034.48   0.002311   11.68  0.000697  ( 0.002500  0.007856 -0.025085)
 68:   1046.18   0.010970   55.44  0.003272  ( 0.047843 -0.030710  0.006328)
 69:   1069.70   0.011598   58.61  0.003383  (-0.031898  0.008123  0.047958)
 70:   1079.69   0.001176    5.94  0.000340  (-0.015428 -0.004982 -0.008778)
 71:   1083.75   0.010559   53.36  0.003041  (-0.004218 -0.022422 -0.050200)
 72:   1146.96   0.013333   67.38  0.003628  (-0.015326  0.019767  0.054790)
 73:   1160.10   0.004538   22.93  0.001221  ( 0.012161 -0.031432  0.009212)
 74:   1171.76   0.000281    1.42  0.000075  ( 0.000888  0.006165 -0.006007)
 75:   1172.87   0.000062    0.31  0.000016  ( 0.002671  0.001075 -0.002843)
 76:   1173.37   0.001044    5.28  0.000278  (-0.006182  0.005486  0.014471)
 77:   1197.54   0.005334   26.95  0.001390  (-0.036539  0.002593 -0.006932)
 78:   1205.53   0.001033    5.22  0.000268  ( 0.014508 -0.005053  0.005612)
 79:   1207.16   0.004341   21.94  0.001122  (-0.028589  0.017297  0.002400)
 80:   1207.49   0.003269   16.52  0.000845  (-0.013113  0.007351  0.024877)
 81:   1234.27   0.000236    1.19  0.000060  ( 0.005469 -0.003309  0.004334)
 82:   1240.33   0.014733   74.46  0.003707  (-0.054593 -0.019764 -0.018328)
 83:   1247.02   0.050206  253.72  0.012564  (-0.087133  0.063977 -0.029641)
 84:   1264.16   0.060647  306.48  0.014971  (-0.105987  0.052536 -0.031265)
 85:   1274.08   0.017288   87.37  0.004234  ( 0.062922  0.003699 -0.016172)
 86:   1308.47   0.062127  313.96  0.014817  (-0.047792 -0.061345 -0.093646)
 87:   1319.20   0.005677   28.69  0.001343  (-0.011641 -0.021405 -0.027371)
 88:   1327.25   0.010874   54.95  0.002557  (-0.046896 -0.017288 -0.007657)
 89:   1357.16   0.012788   64.63  0.002940  (-0.049591  0.021934  0.000359)
 90:   1361.15   0.010068   50.88  0.002308  ( 0.017178  0.033229  0.030149)
 91:   1371.04   0.021728  109.81  0.004946  ( 0.067285 -0.017351  0.010831)
 92:   1388.17   0.008530   43.11  0.001918  (-0.028119  0.006766  0.032881)
 93:   1403.74   0.001928    9.74  0.000429  ( 0.001078  0.015887  0.013227)
 94:   1422.91   0.049156  248.41  0.010780  ( 0.062756 -0.068340 -0.046602)
 95:   1446.79   0.015868   80.19  0.003423  (-0.057405 -0.002956  0.010881)
 96:   1464.85   0.004900   24.76  0.001044  ( 0.003606  0.028260  0.015237)
 97:   1465.11   0.003224   16.29  0.000687  ( 0.000234  0.019371 -0.017647)
 98:   1469.33   0.005306   26.81  0.001127  (-0.033105  0.005361  0.001464)
 99:   1472.09   0.005784   29.23  0.001226  (-0.023684  0.012423 -0.022601)
100:   1477.53   0.003813   19.27  0.000805  (-0.003781 -0.018354 -0.021312)
101:   1483.98   0.002222   11.23  0.000467  ( 0.015631  0.012558  0.008078)
102:   1500.67   0.010714   54.14  0.002228  ( 0.011352  0.025211  0.038255)
103:   1503.71   0.027592  139.44  0.005726  ( 0.067571  0.029451 -0.017116)
104:   1541.39   0.031203  157.69  0.006317  ( 0.033420  0.042247  0.058442)
105:   1616.24   0.024529  123.96  0.004736  (-0.048646  0.035652 -0.033145)
106:   1650.89   0.033804  170.83  0.006390  ( 0.012585 -0.067213  0.041401)
107:   1655.77   0.096970  490.05  0.018276  (-0.017136  0.067126 -0.116089)
108:   1666.22   0.014464   73.10  0.002709  ( 0.036322  0.022763  0.029521)
109:   1706.45   0.042845  216.52  0.007835  (-0.085512 -0.022812 -0.001599)
110:   1796.01   0.107530  543.41  0.018684  ( 0.066107  0.080055  0.088909)
111:   2378.73   0.013644   68.95  0.001790  ( 0.021873  0.030458 -0.019590)
112:   3042.50   0.003337   16.86  0.000342  (-0.008453 -0.000579  0.016447)
113:   3043.48   0.008989   45.43  0.000922  (-0.010425  0.007988  0.027371)
114:   3074.39   0.006308   31.88  0.000640  (-0.018394  0.016233  0.006195)
115:   3102.58   0.001543    7.80  0.000155  ( 0.011307 -0.005113  0.001099)
116:   3118.29   0.006507   32.88  0.000651  (-0.008701  0.021962 -0.009651)
117:   3142.71   0.000624    3.16  0.000062  (-0.005481  0.000130  0.005652)
118:   3158.38   0.003793   19.17  0.000375  (-0.006294 -0.012911  0.012979)
119:   3170.17   0.003046   15.40  0.000300  ( 0.013014  0.008689  0.007417)
120:   3188.09   0.000596    3.01  0.000058  (-0.004918  0.000756  0.005799)
121:   3191.18   0.002088   10.55  0.000204  ( 0.009872  0.003401  0.009754)
122:   3192.04   0.002407   12.16  0.000235  (-0.012835  0.003664 -0.007558)
123:   3197.91   0.001516    7.66  0.000148  (-0.010879 -0.001556  0.005215)
124:   3216.37   0.002630   13.29  0.000255  (-0.009544 -0.007574 -0.010332)
125:   3217.34   0.000219    1.11  0.000021  ( 0.004089  0.001483  0.001515)
126:   3218.59   0.000372    1.88  0.000036  (-0.004240  0.000451 -0.004232)
127:   3229.94   0.000208    1.05  0.000020  (-0.003017  0.000674  0.003239)
128:   3248.96   0.000355    1.80  0.000034  ( 0.000783  0.003913 -0.004267)

--------------------------
THERMOCHEMISTRY AT 298.15K
--------------------------

Temperature         ... 298.15 K
Pressure            ... 1.00 atm
Total Mass          ... 355.35 AMU

Throughout the following assumptions are being made:
  (1) The electronic state is orbitally nondegenerate
  (2) There are no thermally accessible electronically excited states
  (3) Hindered rotations indicated by low frequency modes are not
      treated as such but are treated as vibrations and this may
      cause some error
  (4) All equations used are the standard statistical mechanics
      equations for an ideal gas
  (5) All vibrations are strictly harmonic

freq.      29.17  E(vib)   ...       0.55
freq.      49.83  E(vib)   ...       0.52
freq.      62.41  E(vib)   ...       0.51
freq.      72.21  E(vib)   ...       0.50
freq.      76.16  E(vib)   ...       0.49
freq.      92.57  E(vib)   ...       0.47
freq.      95.55  E(vib)   ...       0.47
freq.      98.99  E(vib)   ...       0.46
freq.     114.70  E(vib)   ...       0.44
freq.     120.44  E(vib)   ...       0.44
freq.     126.97  E(vib)   ...       0.43
freq.     146.40  E(vib)   ...       0.41
freq.     151.56  E(vib)   ...       0.40
freq.     175.09  E(vib)   ...       0.38
freq.     192.43  E(vib)   ...       0.36
freq.     202.53  E(vib)   ...       0.35
freq.     216.62  E(vib)   ...       0.34
freq.     236.36  E(vib)   ...       0.32
freq.     246.68  E(vib)   ...       0.31
freq.     277.19  E(vib)   ...       0.28
freq.     284.64  E(vib)   ...       0.28
freq.     301.71  E(vib)   ...       0.26
freq.     309.72  E(vib)   ...       0.26
freq.     338.61  E(vib)   ...       0.23
freq.     373.36  E(vib)   ...       0.21
freq.     389.94  E(vib)   ...       0.20
freq.     428.99  E(vib)   ...       0.18
freq.     473.64  E(vib)   ...       0.15
freq.     482.92  E(vib)   ...       0.15
freq.     494.22  E(vib)   ...       0.14
freq.     504.02  E(vib)   ...       0.14
freq.     522.48  E(vib)   ...       0.13
freq.     553.93  E(vib)   ...       0.12
freq.     565.79  E(vib)   ...       0.11
freq.     579.97  E(vib)   ...       0.11
freq.     599.17  E(vib)   ...       0.10
freq.     611.36  E(vib)   ...       0.10
freq.     630.39  E(vib)   ...       0.09
freq.     648.13  E(vib)   ...       0.08
freq.     670.08  E(vib)   ...       0.08
freq.     710.96  E(vib)   ...       0.07
freq.     717.88  E(vib)   ...       0.07
freq.     743.61  E(vib)   ...       0.06
freq.     766.76  E(vib)   ...       0.06
freq.     773.59  E(vib)   ...       0.05
freq.     783.14  E(vib)   ...       0.05
freq.     797.61  E(vib)   ...       0.05
freq.     814.08  E(vib)   ...       0.05
freq.     831.51  E(vib)   ...       0.04
freq.     862.47  E(vib)   ...       0.04
freq.     872.32  E(vib)   ...       0.04
freq.     880.84  E(vib)   ...       0.04
freq.     928.80  E(vib)   ...       0.03
freq.     932.98  E(vib)   ...       0.03
freq.     953.08  E(vib)   ...       0.03
freq.     960.94  E(vib)   ...       0.03
freq.     986.72  E(vib)   ...       0.02
freq.     992.74  E(vib)   ...       0.02
freq.    1004.34  E(vib)   ...       0.02
freq.    1013.25  E(vib)   ...       0.02
freq.    1020.39  E(vib)   ...       0.02
freq.    1034.48  E(vib)   ...       0.02
freq.    1046.18  E(vib)   ...       0.02
freq.    1069.70  E(vib)   ...       0.02
freq.    1079.69  E(vib)   ...       0.02
freq.    1083.75  E(vib)   ...       0.02
freq.    1146.96  E(vib)   ...       0.01
freq.    1160.10  E(vib)   ...       0.01
freq.    1171.76  E(vib)   ...       0.01
freq.    1172.87  E(vib)   ...       0.01
freq.    1173.37  E(vib)   ...       0.01
freq.    1197.54  E(vib)   ...       0.01
freq.    1205.53  E(vib)   ...       0.01
freq.    1207.16  E(vib)   ...       0.01
freq.    1207.49  E(vib)   ...       0.01
freq.    1234.27  E(vib)   ...       0.01
freq.    1240.33  E(vib)   ...       0.01
freq.    1247.02  E(vib)   ...       0.01
freq.    1264.16  E(vib)   ...       0.01
freq.    1274.08  E(vib)   ...       0.01
freq.    1308.47  E(vib)   ...       0.01
freq.    1319.20  E(vib)   ...       0.01
freq.    1327.25  E(vib)   ...       0.01
freq.    1357.16  E(vib)   ...       0.01
freq.    1361.15  E(vib)   ...       0.01
freq.    1371.04  E(vib)   ...       0.01
freq.    1388.17  E(vib)   ...       0.00
freq.    1403.74  E(vib)   ...       0.00
freq.    1422.91  E(vib)   ...       0.00
freq.    1446.79  E(vib)   ...       0.00
freq.    1464.85  E(vib)   ...       0.00
freq.    1465.11  E(vib)   ...       0.00
freq.    1469.33  E(vib)   ...       0.00
freq.    1472.09  E(vib)   ...       0.00
freq.    1477.53  E(vib)   ...       0.00
freq.    1483.98  E(vib)   ...       0.00
freq.    1500.67  E(vib)   ...       0.00
freq.    1503.71  E(vib)   ...       0.00
freq.    1541.39  E(vib)   ...       0.00
freq.    1616.24  E(vib)   ...       0.00
freq.    1650.89  E(vib)   ...       0.00
freq.    1655.77  E(vib)   ...       0.00
freq.    1666.22  E(vib)   ...       0.00
freq.    1706.45  E(vib)   ...       0.00
freq.    1796.01  E(vib)   ...       0.00
freq.    2378.73  E(vib)   ...       0.00
freq.    3042.50  E(vib)   ...       0.00
freq.    3043.48  E(vib)   ...       0.00
freq.    3074.39  E(vib)   ...       0.00
freq.    3102.58  E(vib)   ...       0.00
freq.    3118.29  E(vib)   ...       0.00
freq.    3142.71  E(vib)   ...       0.00
freq.    3158.38  E(vib)   ...       0.00
freq.    3170.17  E(vib)   ...       0.00
freq.    3188.09  E(vib)   ...       0.00
freq.    3191.18  E(vib)   ...       0.00
freq.    3192.04  E(vib)   ...       0.00
freq.    3197.91  E(vib)   ...       0.00
freq.    3216.37  E(vib)   ...       0.00
freq.    3217.34  E(vib)   ...       0.00
freq.    3218.59  E(vib)   ...       0.00
freq.    3229.94  E(vib)   ...       0.00
freq.    3248.96  E(vib)   ...       0.00

------------
INNER ENERGY
------------

The inner energy is: U= E(el) + E(ZPE) + E(vib) + E(rot) + E(trans)
    E(el)   - is the total energy from the electronic structure calculation
              = E(kin-el) + E(nuc-el) + E(el-el) + E(nuc-nuc)
    E(ZPE)  - the the zero temperature vibrational energy from the frequency calculation
    E(vib)  - the the finite temperature correction to E(ZPE) due to population
              of excited vibrational states
    E(rot)  - is the rotational thermal energy
    E(trans)- is the translational thermal energy

Summary of contributions to the inner energy U:
Electronic energy                ...  -1235.51752177 Eh
Zero point energy                ...      0.33356736 Eh     209.32 kcal/mol
Thermal vibrational correction   ...      0.02024563 Eh      12.70 kcal/mol
Thermal rotational correction    ...      0.00141627 Eh       0.89 kcal/mol
Thermal translational correction ...      0.00141627 Eh       0.89 kcal/mol
-----------------------------------------------------------------------

Rotational constants in cm-1:     0.011472     0.006889     0.005649

                             ****ORCA TERMINATED NORMALLY****
TOTAL RUN TIME: 0 days 1 hours 44 minutes 54 seconds 812 msec
