                         Program Version 5.0.4 -  RELEASE  -
|  1> %pal nprocs 24 end
|  2> ! PBE0 D3BJ def2-TZVP TightSCF OPT FREQ TightOpt
|  3> ! CPCM(dmso)
|  4> %scf
|  5> MaxIter 800
|  6> end
|  7>
|  8> %geom
|  9> MaxIter 800
| 10> MaxStep 0.15
| 11> end
| 12>
| 13> *xyz 0 1
| 14> C       3.51578400      2.81930700     -0.78722400
| 15> C       4.38765600      1.99704000      0.02007000
| 16> C       3.92146500      0.78996000      0.42941400
| 17> N       2.69296700      0.33281600      0.06351900
| 18> C       1.72793400      1.10796700     -0.67605200
| 19> C       2.27399100      2.41761000     -1.13442700
| 20> C       2.02868700     -0.78813800      0.65383300
| 21> C       2.03159700     -1.97914000     -0.29866900
| 22> O       2.50296500     -1.97263700     -1.40777400
| 23> O       1.52576500     -3.05170900      0.29348400
| 24> C       1.44375800     -4.23779700     -0.48701400
| 25> H       3.88142800      3.78681900     -1.14360400
| 26> H       4.49923500      0.10960300      1.06029900
| 27> H       1.34459900      0.51604700     -1.52987900
| 28> H       1.63082100      3.03371800     -1.76575800
| 29> H       2.56593300     -1.12463600      1.55277600
| 30> H       1.02049600     -5.00724000      0.16764100
| 31> H       2.44034600     -4.54043900     -0.83784200
| 32> C       0.46645700      1.11436400      0.29099000
| 33> C       0.62318400     -0.21952100      1.08929400
| 34> C      -0.55022800     -1.15567300      1.07772800
| 35> C      -1.16232300     -1.53294800      2.27097600
| 36> C      -2.27426300     -2.37855700      2.28133700
| 37> C      -2.78642400     -2.84646200      1.07513700
| 38> C      -2.19357800     -2.48472700     -0.13754000
| 39> C      -1.07363200     -1.65403400     -0.13088000
| 40> O      -0.41372500     -1.25790500     -1.23583300
| 41> C      -0.90880400     -1.59645500     -2.51134900
| 42> N       0.70665100      2.28734000      1.22058000
| 43> O       1.40620300      2.12282000      2.19575700
| 44> H       0.76578500      0.08811400      2.13042700
| 45> H      -0.76014300     -1.14771100      3.21213000
| 46> H      -2.73897300     -2.66103000      3.22838300
| 47> H      -3.66093500     -3.50196500      1.06568500
| 48> H      -2.60326000     -2.85666800     -1.07710800
| 49> H      -0.21244000     -1.15985700     -3.23734600
| 50> H      -1.91469500     -1.17459300     -2.66734700
| 51> H      -0.94170100     -2.68873000     -2.65184600
| 52> O       0.28974500      3.36481400      0.85768500
| 53> H       0.78826000     -4.07895200     -1.35548000
| 54> H       5.38664600      2.32848800      0.30046000
| 55> C      -0.81051700      1.34121000     -0.45456400
| 56> H      -0.73543500      1.47658400     -1.53804500
| 57> C      -2.02170700      1.34580100      0.10889100
| 58> H      -2.16997400      1.21542000      1.18326100
| 59> C      -3.22865300      1.49939400     -0.72731700
| 60> O      -3.23956700      1.59708400     -1.93530900
| 61> O      -4.33275100      1.50053000      0.01786500
| 62> C      -5.56739000      1.61357400     -0.67654500
| 63> H      -6.35242700      1.59341700      0.08740400
| 64> H      -5.61157400      2.55675000     -1.24025400
| 65> H      -5.69710400      0.77414100     -1.37517500
| 66> *
| 67>
| 68>                          ****END OF INPUT****
 Total Charge           Charge          ....    0
 Multiplicity           Mult            ....    1
 Number of Electrons    NEL             ....  218
Dispersion correction           -0.071389479
FINAL SINGLE POINT ENERGY     -1448.416728935759
Dispersion correction            ... done
Dispersion correction           -0.070962490
FINAL SINGLE POINT ENERGY     -1448.418558583659
Dispersion correction            ... done
Dispersion correction           -0.071593827
FINAL SINGLE POINT ENERGY     -1448.417368558932
Dispersion correction            ... done
FINAL SINGLE POINT ENERGY     -1448.418759066697
FINAL SINGLE POINT ENERGY     -1448.418689648899
FINAL SINGLE POINT ENERGY     -1448.418790958235
FINAL SINGLE POINT ENERGY     -1448.418590778935
FINAL SINGLE POINT ENERGY     -1448.418802122033
FINAL SINGLE POINT ENERGY     -1448.418797005898
FINAL SINGLE POINT ENERGY     -1448.418802165307
FINAL SINGLE POINT ENERGY     -1448.418800174798
Dispersion correction           -0.071114929
FINAL SINGLE POINT ENERGY     -1448.418799739826
Dispersion correction            ... done
Dispersion correction           -0.071111938
FINAL SINGLE POINT ENERGY     -1448.418799108993
Dispersion correction            ... done
                    ***********************HURRAY********************

CARTESIAN COORDINATES (ANGSTROEM)
---------------------------------
  C      3.491423    2.818320   -0.803217
  C      4.366803    1.985598   -0.019695
  C      3.902126    0.785915    0.385724
  N      2.669228    0.337741    0.037633
  C      1.700033    1.125186   -0.678013
  C      2.247287    2.432560   -1.126757
  C      2.017384   -0.777471    0.648312
  C      2.045127   -1.997063   -0.264755
  O      2.528349   -2.019932   -1.367444
  O      1.549721   -3.055381    0.358874
  C      1.500444   -4.270183   -0.394003
  H      3.854779    3.778609   -1.153890
  H      4.480455    0.104509    0.998668
  H      1.307353    0.550825   -1.529200
  H      1.601342    3.056230   -1.732074
  H      2.552461   -1.076855    1.552297
  H      1.050946   -5.007238    0.266107
  H      2.505318   -4.578393   -0.682705
  C      0.446211    1.120668    0.296055
  C      0.602692   -0.223477    1.070874
  C     -0.563133   -1.164254    1.030317
  C     -1.173817   -1.552017    2.212862
  C     -2.263613   -2.414311    2.217864
  C     -2.755869   -2.890157    1.014636
  C     -2.165479   -2.517107   -0.187541
  C     -1.069899   -1.666043   -0.174892
  O     -0.414287   -1.258615   -1.280078
  C     -0.895689   -1.660967   -2.548516
  N      0.683980    2.281166    1.239624
  O      1.376677    2.104546    2.219088
  H      0.725362    0.059166    2.113796
  H     -0.786292   -1.165001    3.149635
  H     -2.724237   -2.703523    3.154718
  H     -3.608850   -3.559163    0.999053
  H     -2.558000   -2.895265   -1.122029
  H     -0.230657   -1.205275   -3.279072
  H     -1.917094   -1.305182   -2.707193
  H     -0.864174   -2.748679   -2.652664
  O      0.272815    3.365995    0.888215
  H      0.886795   -4.133556   -1.284818
  H      5.364449    2.303755    0.244713
  C     -0.828327    1.356571   -0.445385
  H     -0.749021    1.485281   -1.520192
  C     -2.028243    1.380633    0.120406
  H     -2.171177    1.254104    1.186987
  C     -3.236283    1.563120   -0.701346
  O     -3.258708    1.689135   -1.905058
  O     -4.331214    1.561168    0.058807
  C     -5.573090    1.716402   -0.629643
  H     -6.341171    1.697031    0.139178
  H     -5.594594    2.666290   -1.164584
  H     -5.720504    0.897791   -1.334833

 Multiplicity           Mult            ....    1
 Number of Electrons    NEL             ....  218
 Basis Dimension        Dim             .... 1062

ORBITAL ENERGIES
----------------

  NO   OCC          E(Eh)            E(eV)
   0   2.0000     -19.263126      -524.1763
   1   2.0000     -19.262458      -524.1581
   2   2.0000     -19.251771      -523.8673
   3   2.0000     -19.250825      -523.8416
   4   2.0000     -19.250316      -523.8277
   5   2.0000     -19.202017      -522.5135
   6   2.0000     -19.199132      -522.4349
   7   2.0000     -14.624081      -397.9415
   8   2.0000     -14.426472      -392.5643
   9   2.0000     -10.358419      -281.8669
  10   2.0000     -10.357821      -281.8506
  11   2.0000     -10.310282      -280.5570
  12   2.0000     -10.290700      -280.0242
  13   2.0000     -10.288764      -279.9715
  14   2.0000     -10.288666      -279.9688
  15   2.0000     -10.270551      -279.4759
  16   2.0000     -10.269349      -279.4432
  17   2.0000     -10.268445      -279.4186
  18   2.0000     -10.266363      -279.3619
  19   2.0000     -10.265245      -279.3315
  20   2.0000     -10.257640      -279.1246
  21   2.0000     -10.242391      -278.7096
  22   2.0000     -10.240395      -278.6553
  23   2.0000     -10.231346      -278.4091
  24   2.0000     -10.230657      -278.3903
  25   2.0000     -10.230437      -278.3843
  26   2.0000     -10.226661      -278.2816
  27   2.0000     -10.224582      -278.2250
  28   2.0000     -10.221860      -278.1510
  29   2.0000     -10.207597      -277.7628
  30   2.0000      -1.283433       -34.9240
  31   2.0000      -1.153729       -31.3946
  32   2.0000      -1.149335       -31.2750
  33   2.0000      -1.114217       -30.3194
  34   2.0000      -1.103924       -30.0393
  35   2.0000      -1.061365       -28.8812
  36   2.0000      -1.055760       -28.7287
  37   2.0000      -1.023221       -27.8433
  38   2.0000      -0.907187       -24.6858
  39   2.0000      -0.886177       -24.1141
  40   2.0000      -0.857524       -23.3344
  41   2.0000      -0.825859       -22.4728
  42   2.0000      -0.812221       -22.1017
  43   2.0000      -0.789480       -21.4829
  44   2.0000      -0.783208       -21.3122
  45   2.0000      -0.778559       -21.1857
  46   2.0000      -0.756030       -20.5726
  47   2.0000      -0.746770       -20.3206
  48   2.0000      -0.722612       -19.6633
  49   2.0000      -0.706549       -19.2262
  50   2.0000      -0.673658       -18.3312
  51   2.0000      -0.664769       -18.0893
  52   2.0000      -0.647438       -17.6177
  53   2.0000      -0.632596       -17.2138
  54   2.0000      -0.617209       -16.7951
  55   2.0000      -0.601198       -16.3594
  56   2.0000      -0.596693       -16.2368
  57   2.0000      -0.586592       -15.9620
  58   2.0000      -0.578027       -15.7289
  59   2.0000      -0.565092       -15.3769
  60   2.0000      -0.554896       -15.0995
  61   2.0000      -0.549875       -14.9629
  62   2.0000      -0.546767       -14.8783
  63   2.0000      -0.541831       -14.7440
  64   2.0000      -0.534675       -14.5492
  65   2.0000      -0.521437       -14.1890
  66   2.0000      -0.517248       -14.0750
  67   2.0000      -0.508420       -13.8348
  68   2.0000      -0.507770       -13.8171
  69   2.0000      -0.503431       -13.6990
  70   2.0000      -0.501227       -13.6391
  71   2.0000      -0.494143       -13.4463
  72   2.0000      -0.486218       -13.2307
  73   2.0000      -0.484353       -13.1799
  74   2.0000      -0.471099       -12.8192
  75   2.0000      -0.462988       -12.5985
  76   2.0000      -0.457189       -12.4407
  77   2.0000      -0.453034       -12.3277
  78   2.0000      -0.443571       -12.0702
  79   2.0000      -0.441892       -12.0245
  80   2.0000      -0.436723       -11.8838
  81   2.0000      -0.430522       -11.7151
  82   2.0000      -0.421319       -11.4647
  83   2.0000      -0.417912       -11.3720
  84   2.0000      -0.415907       -11.3174
  85   2.0000      -0.404998       -11.0205
  86   2.0000      -0.398959       -10.8562
  87   2.0000      -0.391657       -10.6575
  88   2.0000      -0.380581       -10.3561
  89   2.0000      -0.379446       -10.3253
  90   2.0000      -0.377473       -10.2716
  91   2.0000      -0.375812       -10.2264
  92   2.0000      -0.368397       -10.0246
  93   2.0000      -0.364805        -9.9268
  94   2.0000      -0.359145        -9.7728
  95   2.0000      -0.348861        -9.4930
  96   2.0000      -0.346876        -9.4390
  97   2.0000      -0.343335        -9.3426
  98   2.0000      -0.334461        -9.1011
  99   2.0000      -0.330448        -8.9920
 100   2.0000      -0.328980        -8.9520
 101   2.0000      -0.327779        -8.9193
 102   2.0000      -0.310926        -8.4607
 103   2.0000      -0.307578        -8.3696
 104   2.0000      -0.298417        -8.1203
 105   2.0000      -0.292333        -7.9548
 106   2.0000      -0.270989        -7.3740
 107   2.0000      -0.241851        -6.5811
 108   2.0000      -0.200665        -5.4604
 109   0.0000      -0.073026        -1.9871
 110   0.0000      -0.058976        -1.6048
 111   0.0000      -0.026716        -0.7270
 112   0.0000      -0.016663        -0.4534
 113   0.0000      -0.000748        -0.0203

MULLIKEN ATOMIC CHARGES
-----------------------
   0 C :   -0.123449
   1 C :   -0.243204
   2 C :   -0.137981
   3 N :    0.048249
   4 C :   -0.052113
   5 C :   -0.307956
   6 C :   -0.013671
   7 C :    0.273715
   8 O :   -0.384836
   9 O :   -0.217248
  10 C :   -0.260825
  11 H :    0.151436
  12 H :    0.171761
  13 H :    0.143707
  14 H :    0.156652
  15 H :    0.150921
  16 H :    0.161614
  17 H :    0.157920
  18 C :    0.247902
  19 C :    0.098955
  20 C :   -0.046321
  21 C :   -0.229342
  22 C :   -0.215060
  23 C :   -0.127513
  24 C :   -0.344579
  25 C :    0.356804
  26 O :   -0.246835
  27 C :   -0.295166
  28 N :    0.482871
  29 O :   -0.354376
  30 H :    0.136013
  31 H :    0.144409
  32 H :    0.145194
  33 H :    0.151031
  34 H :    0.164037
  35 H :    0.163788
  36 H :    0.156076
  37 H :    0.158316
  38 O :   -0.337448
  39 H :    0.154246
  40 H :    0.156420
  41 C :   -0.309968
  42 H :    0.153160
  43 C :   -0.132007
  44 H :    0.162004
  45 C :    0.365206
  46 O :   -0.417294
  47 O :   -0.226921
  48 C :   -0.255059
  49 H :    0.161756
  50 H :    0.152851
  51 H :    0.152156
Sum of atomic charges:   -0.0000000

LOEWDIN ATOMIC CHARGES
----------------------
   0 C :   -0.160285
   1 C :   -0.227029
   2 C :   -0.179549
   3 N :    0.266131
   4 C :   -0.191148
   5 C :   -0.157617
   6 C :   -0.173776
   7 C :   -0.483690
   8 O :    0.086834
   9 O :    0.279437
  10 C :   -0.302903
  11 H :    0.155720
  12 H :    0.160869
  13 H :    0.176327
  14 H :    0.153683
  15 H :    0.185605
  16 H :    0.123047
  17 H :    0.120036
  18 C :   -0.177142
  19 C :   -0.108093
  20 C :   -0.114958
  21 C :   -0.109473
  22 C :   -0.164854
  23 C :   -0.143349
  24 C :   -0.136856
  25 C :   -0.241054
  26 O :    0.282146
  27 C :   -0.325345
  28 N :   -0.028718
  29 O :   -0.025000
  30 H :    0.186468
  31 H :    0.159812
  32 H :    0.152188
  33 H :    0.154674
  34 H :    0.161496
  35 H :    0.123199
  36 H :    0.119874
  37 H :    0.118808
  38 O :   -0.016369
  39 H :    0.119295
  40 H :    0.149998
  41 C :   -0.075399
  42 H :    0.168675
  43 C :   -0.114817
  44 H :    0.165507
  45 C :   -0.490941
  46 O :    0.067987
  47 O :    0.258623
  48 C :   -0.307430
  49 H :    0.121904
  50 H :    0.118756
  51 H :    0.118693

  Mayer bond orders larger than 0.100000
B(  0-C ,  1-C ) :   1.1013 B(  0-C ,  5-C ) :   1.8383 B(  0-C , 11-H ) :   0.9588
B(  1-C ,  2-C ) :   1.6659 B(  1-C , 40-H ) :   0.9687 B(  2-C ,  3-N ) :   1.2039
B(  2-C , 12-H ) :   0.9462 B(  3-N ,  4-C ) :   0.9669 B(  3-N ,  6-C ) :   0.9759
B(  4-C ,  5-C ) :   0.9599 B(  4-C ,  6-C ) :   0.1048 B(  4-C , 13-H ) :   0.9247
B(  4-C , 18-C ) :   0.8724 B(  5-C , 14-H ) :   0.9588 B(  6-C ,  7-C ) :   0.9606
B(  6-C , 15-H ) :   0.8976 B(  6-C , 19-C ) :   0.9904 B(  7-C ,  8-O ) :   2.0138
B(  7-C ,  9-O ) :   1.2404 B(  9-O , 10-C ) :   0.8860 B( 10-C , 16-H ) :   0.9650
B( 10-C , 17-H ) :   0.9629 B( 10-C , 39-H ) :   0.9696 B( 18-C , 19-C ) :   1.0577
B( 18-C , 28-N ) :   0.8690 B( 18-C , 41-C ) :   0.8928 B( 19-C , 20-C ) :   0.7822
B( 19-C , 30-H ) :   0.8884 B( 20-C , 21-C ) :   1.3800 B( 20-C , 25-C ) :   1.1720
B( 21-C , 22-C ) :   1.3878 B( 21-C , 31-H ) :   0.9809 B( 22-C , 23-C ) :   1.3966
B( 22-C , 32-H ) :   0.9866 B( 23-C , 24-C ) :   1.3786 B( 23-C , 33-H ) :   0.9716
B( 24-C , 25-C ) :   1.3940 B( 24-C , 34-H ) :   0.9654 B( 25-C , 26-O ) :   1.0732
B( 26-O , 27-C ) :   0.9234 B( 27-C , 35-H ) :   0.9648 B( 27-C , 36-H ) :   0.9609
B( 27-C , 37-H ) :   0.9599 B( 28-N , 29-O ) :   1.5584 B( 28-N , 38-O ) :   1.6085
B( 29-O , 38-O ) :   0.1879 B( 41-C , 42-H ) :   0.9339 B( 41-C , 43-C ) :   1.8059
B( 43-C , 44-H ) :   0.9500 B( 43-C , 45-C ) :   1.0114 B( 45-C , 46-O ) :   1.9417
B( 45-C , 47-O ) :   1.2411 B( 47-O , 48-C ) :   0.8923 B( 48-C , 49-H ) :   0.9631
B( 48-C , 50-H ) :   0.9671 B( 48-C , 51-H ) :   0.9661

Dispersion correction           -0.071110009
FINAL SINGLE POINT ENERGY     -1448.418798911874

DIPOLE MOMENT
-------------
                                X             Y             Z
Electronic contribution:      6.92602       8.90149       6.58795
Nuclear contribution   :     -8.33546     -11.90165      -6.34037
                        -----------------------------------------
Total Dipole Moment    :     -1.40944      -3.00016       0.24758
                        -----------------------------------------
Magnitude (a.u.)       :      3.32397
Magnitude (Debye)      :      8.44887

Dispersion correction in the Hessian             ... done   (      0.8 sec)

VIBRATIONAL FREQUENCIES
-----------------------

Scaling factor for frequencies =  1.000000000  (already applied!)

   0:         0.00 cm**-1
   1:         0.00 cm**-1
   2:         0.00 cm**-1
   3:         0.00 cm**-1
   4:         0.00 cm**-1
   5:         0.00 cm**-1
   6:        20.78 cm**-1
   7:        26.99 cm**-1
   8:        40.85 cm**-1
   9:        48.08 cm**-1
  10:        54.95 cm**-1
  11:        66.77 cm**-1
  12:        71.46 cm**-1
  13:        75.02 cm**-1
  14:        85.17 cm**-1
  15:        91.55 cm**-1
  16:        99.67 cm**-1
  17:       117.05 cm**-1
  18:       120.49 cm**-1
  19:       127.41 cm**-1
  20:       147.98 cm**-1
  21:       153.52 cm**-1
  22:       154.17 cm**-1
  23:       160.84 cm**-1
  24:       184.35 cm**-1
  25:       202.67 cm**-1
  26:       210.18 cm**-1
  27:       214.94 cm**-1
  28:       232.31 cm**-1
  29:       236.93 cm**-1
  30:       254.47 cm**-1
  31:       283.20 cm**-1
  32:       294.06 cm**-1
  33:       305.70 cm**-1
  34:       314.01 cm**-1
  35:       332.64 cm**-1
  36:       353.10 cm**-1
  37:       366.28 cm**-1
  38:       379.16 cm**-1
  39:       419.48 cm**-1
  40:       466.98 cm**-1
  41:       481.88 cm**-1
  42:       488.46 cm**-1
  43:       501.61 cm**-1
  44:       550.21 cm**-1
  45:       567.48 cm**-1
  46:       574.26 cm**-1
  47:       586.62 cm**-1
  48:       592.34 cm**-1
  49:       612.80 cm**-1
  50:       645.64 cm**-1
  51:       656.26 cm**-1
  52:       666.39 cm**-1
  53:       692.67 cm**-1
  54:       709.97 cm**-1
  55:       722.40 cm**-1
  56:       754.53 cm**-1
  57:       759.35 cm**-1
  58:       769.61 cm**-1
  59:       782.70 cm**-1
  60:       796.07 cm**-1
  61:       811.78 cm**-1
  62:       832.09 cm**-1
  63:       846.88 cm**-1
  64:       868.27 cm**-1
  65:       872.22 cm**-1
  66:       892.00 cm**-1
  67:       896.73 cm**-1
  68:       930.38 cm**-1
  69:       939.87 cm**-1
  70:       948.08 cm**-1
  71:       956.74 cm**-1
  72:       980.93 cm**-1
  73:       981.15 cm**-1
  74:       987.90 cm**-1
  75:       998.72 cm**-1
  76:      1006.46 cm**-1
  77:      1015.42 cm**-1
  78:      1018.96 cm**-1
  79:      1040.56 cm**-1
  80:      1047.26 cm**-1
  81:      1057.53 cm**-1
  82:      1070.53 cm**-1
  83:      1084.26 cm**-1
  84:      1085.55 cm**-1
  85:      1146.27 cm**-1
  86:      1156.10 cm**-1
  87:      1170.91 cm**-1
  88:      1171.12 cm**-1
  89:      1172.16 cm**-1
  90:      1174.10 cm**-1
  91:      1195.95 cm**-1
  92:      1202.69 cm**-1
  93:      1205.94 cm**-1
  94:      1206.74 cm**-1
  95:      1218.34 cm**-1
  96:      1229.09 cm**-1
  97:      1235.27 cm**-1
  98:      1242.24 cm**-1
  99:      1250.69 cm**-1
 100:      1259.10 cm**-1
 101:      1273.40 cm**-1
 102:      1307.71 cm**-1
 103:      1314.88 cm**-1
 104:      1322.19 cm**-1
 105:      1328.63 cm**-1
 106:      1349.32 cm**-1
 107:      1354.73 cm**-1
 108:      1360.55 cm**-1
 109:      1370.95 cm**-1
 110:      1390.15 cm**-1
 111:      1403.38 cm**-1
 112:      1423.84 cm**-1
 113:      1443.76 cm**-1
 114:      1464.59 cm**-1
 115:      1464.88 cm**-1
 116:      1465.26 cm**-1
 117:      1466.17 cm**-1
 118:      1468.70 cm**-1
 119:      1472.27 cm**-1
 120:      1473.43 cm**-1
 121:      1475.63 cm**-1
 122:      1482.21 cm**-1
 123:      1500.53 cm**-1
 124:      1507.44 cm**-1
 125:      1542.22 cm**-1
 126:      1616.39 cm**-1
 127:      1631.76 cm**-1
 128:      1652.98 cm**-1
 129:      1666.48 cm**-1
 130:      1705.37 cm**-1
 131:      1732.73 cm**-1
 132:      1764.39 cm**-1
 133:      1794.03 cm**-1
 134:      2999.28 cm**-1
 135:      3042.06 cm**-1
 136:      3069.46 cm**-1
 137:      3072.38 cm**-1
 138:      3104.60 cm**-1
 139:      3116.27 cm**-1
 140:      3143.10 cm**-1
 141:      3151.04 cm**-1
 142:      3156.04 cm**-1
 143:      3168.05 cm**-1
 144:      3186.20 cm**-1
 145:      3186.96 cm**-1
 146:      3187.87 cm**-1
 147:      3189.00 cm**-1
 148:      3189.91 cm**-1
 149:      3196.35 cm**-1
 150:      3212.36 cm**-1
 151:      3212.42 cm**-1
 152:      3214.20 cm**-1
 153:      3215.55 cm**-1
 154:      3230.15 cm**-1
 155:      3246.36 cm**-1

IR SPECTRUM
-----------

 Mode   freq       eps      Int      T**2         TX        TY        TZ
       cm**-1   L/(mol*cm) km/mol    a.u.
----------------------------------------------------------------------------
  6:     20.78   0.000046    0.23  0.000688  ( 0.007459  0.024999  0.002784)
  7:     26.99   0.000292    1.48  0.003376  ( 0.027648  0.049637  0.012147)
  8:     40.85   0.000337    1.70  0.002572  (-0.008961 -0.049307 -0.007770)
  9:     48.08   0.000187    0.94  0.001212  ( 0.011797 -0.025515  0.020541)
 10:     54.95   0.000070    0.35  0.000397  ( 0.003165  0.019153  0.004460)
 11:     66.77   0.000900    4.55  0.004205  (-0.020625  0.059641  0.014924)
 12:     71.46   0.000474    2.40  0.002070  ( 0.033470 -0.020009  0.023440)
 13:     75.02   0.000314    1.59  0.001307  ( 0.031649 -0.016518 -0.005717)
 14:     85.17   0.000419    2.12  0.001537  (-0.036753 -0.008802 -0.010410)
 15:     91.55   0.000476    2.40  0.001622  (-0.012040 -0.038107  0.004993)
 16:     99.67   0.000639    3.23  0.002000  (-0.037517  0.024240 -0.002101)
 17:    117.05   0.000073    0.37  0.000193  (-0.013492  0.001791  0.002866)
 18:    120.49   0.000024    0.12  0.000061  ( 0.005116 -0.005609  0.001839)
 19:    127.41   0.001078    5.45  0.002640  (-0.032721  0.039593 -0.001311)
 20:    147.98   0.000731    3.69  0.001541  (-0.038891  0.005145 -0.001420)
 21:    153.52   0.000242    1.22  0.000492  (-0.020788 -0.004824  0.006046)
 22:    154.17   0.000060    0.30  0.000122  (-0.000925 -0.010940 -0.001248)
 23:    160.84   0.000360    1.82  0.000698  (-0.022227  0.014071  0.002543)
 24:    184.35   0.000358    1.81  0.000607  (-0.008264  0.016904 -0.015895)
 25:    202.67   0.000280    1.42  0.000432  ( 0.002419 -0.012810 -0.016182)
 26:    210.18   0.001093    5.53  0.001623  ( 0.039069 -0.009733 -0.001490)
 27:    214.94   0.002334   11.80  0.003389  (-0.017253  0.055279 -0.005992)
 28:    232.31   0.000515    2.60  0.000692  ( 0.007546 -0.008657  0.023662)
 29:    236.93   0.000760    3.84  0.001002  (-0.024540 -0.013166  0.015033)
 30:    254.47   0.001954    9.88  0.002396  ( 0.020306 -0.040984  0.017445)
 31:    283.20   0.002773   14.01  0.003055  ( 0.040542  0.033598 -0.016818)
 32:    294.06   0.001786    9.03  0.001896  (-0.032443 -0.023255  0.017387)
 33:    305.70   0.000920    4.65  0.000939  ( 0.019182 -0.015672 -0.018045)
 34:    314.01   0.003468   17.53  0.003447  (-0.055535  0.001990  0.018940)
 35:    332.64   0.000047    0.24  0.000044  (-0.002599  0.006105 -0.000050)
 36:    353.10   0.001096    5.54  0.000969  ( 0.030482  0.005819 -0.002374)
 37:    366.28   0.004342   21.94  0.003699  ( 0.022452  0.055416  0.011140)
 38:    379.16   0.001171    5.92  0.000964  ( 0.022697 -0.020882  0.003510)
 39:    419.48   0.010419   52.65  0.007751  ( 0.062489 -0.040246 -0.047181)
 40:    466.98   0.000806    4.07  0.000538  (-0.016867 -0.010824 -0.011690)
 41:    481.88   0.001088    5.50  0.000705  (-0.005220 -0.001009 -0.026010)
 42:    488.46   0.003944   19.93  0.002520  (-0.022983 -0.013191 -0.042630)
 43:    501.61   0.001767    8.93  0.001099  ( 0.026305 -0.015115 -0.013370)
 44:    550.21   0.001758    8.88  0.000997  ( 0.024130 -0.020331 -0.001247)
 45:    567.48   0.005997   30.30  0.003298  ( 0.044312  0.034112 -0.013049)
 46:    574.26   0.001105    5.59  0.000601  ( 0.009552 -0.010369  0.020048)
 47:    586.62   0.000301    1.52  0.000160  (-0.006977  0.009772 -0.004000)
 48:    592.34   0.005782   29.22  0.003046  (-0.035988  0.027141 -0.031852)
 49:    612.80   0.002704   13.66  0.001377  ( 0.015235  0.033833 -0.000058)
 50:    645.64   0.001896    9.58  0.000916  ( 0.025034 -0.013330 -0.010582)
 51:    656.26   0.001619    8.18  0.000770  (-0.021270  0.017799 -0.000920)
 52:    666.39   0.006495   32.82  0.003042  (-0.006171  0.039706  0.037776)
 53:    692.67   0.003836   19.38  0.001728  ( 0.025245 -0.032024  0.008077)
 54:    709.97   0.016900   85.41  0.007428  ( 0.032820 -0.024097 -0.075964)
 55:    722.40   0.002767   13.99  0.001196  ( 0.015623  0.023551  0.019919)
 56:    754.53   0.008386   42.38  0.003468  (-0.022568  0.053667 -0.008884)
 57:    759.35   0.000567    2.87  0.000233  ( 0.008028  0.012012  0.004937)
 58:    769.61   0.017284   87.35  0.007008  (-0.063074  0.054016 -0.010604)
 59:    782.70   0.006276   31.72  0.002502  ( 0.005528 -0.048614 -0.010412)
 60:    796.07   0.006712   33.92  0.002631  (-0.029637  0.022559  0.035268)
 61:    811.78   0.012988   65.63  0.004993  ( 0.049132 -0.028969 -0.041708)
 62:    832.09   0.013112   66.26  0.004917  ( 0.051084 -0.037282 -0.030295)
 63:    846.88   0.019690   99.51  0.007256  (-0.062747 -0.008246  0.057012)
 64:    868.27   0.001810    9.15  0.000651  ( 0.005492  0.024227  0.005793)
 65:    872.22   0.001715    8.67  0.000613  (-0.006232 -0.023600 -0.004205)
 66:    892.00   0.003535   17.87  0.001237  (-0.017553 -0.016797 -0.025427)
 67:    896.73   0.001302    6.58  0.000453  (-0.018418  0.009627  0.004608)
 68:    930.38   0.002433   12.30  0.000816  ( 0.017965 -0.021234  0.006525)
 69:    939.87   0.002598   13.13  0.000863  (-0.012797  0.025734  0.006048)
 70:    948.08   0.001221    6.17  0.000402  (-0.018839 -0.002192  0.006498)
 71:    956.74   0.002980   15.06  0.000972  (-0.020640  0.023218  0.002606)
 72:    980.93   0.009492   47.97  0.003020  (-0.019764  0.051251 -0.001544)
 73:    981.15   0.013619   68.83  0.004332  ( 0.019455 -0.044996 -0.043914)
 74:    987.90   0.000185    0.93  0.000058  (-0.001460  0.002468  0.007085)
 75:    998.72   0.001961    9.91  0.000613  ( 0.006058  0.022925  0.007115)
 76:   1006.46   0.007324   37.01  0.002271  (-0.023737 -0.040669 -0.007313)
 77:   1015.42   0.001287    6.50  0.000395  ( 0.018940  0.003795  0.004721)
 78:   1018.96   0.004548   22.99  0.001393  ( 0.002191  0.009168  0.036112)
 79:   1040.56   0.013767   69.57  0.004129  (-0.009828  0.063492 -0.000969)
 80:   1047.26   0.000436    2.20  0.000130  (-0.000778  0.009351 -0.006471)
 81:   1057.53   0.005360   27.09  0.001582  ( 0.031739  0.004363  0.023565)
 82:   1070.53   0.009932   50.19  0.002895  (-0.017818 -0.027857 -0.042447)
 83:   1084.26   0.003473   17.55  0.001000  (-0.016311 -0.000528  0.027080)
 84:   1085.55   0.008510   43.01  0.002446  ( 0.002941 -0.002117 -0.049328)
 85:   1146.27   0.013108   66.24  0.003569  (-0.013730 -0.015425 -0.056056)
 86:   1156.10   0.004773   24.12  0.001288  ( 0.020404 -0.029508 -0.001198)
 87:   1170.91   0.000189    0.95  0.000050  (-0.000294 -0.007028 -0.000937)
 88:   1171.12   0.000313    1.58  0.000083  (-0.007224  0.004254 -0.003621)
 89:   1172.16   0.000039    0.20  0.000010  (-0.000168 -0.001984 -0.002556)
 90:   1174.10   0.001144    5.78  0.000304  ( 0.002765  0.005831  0.016200)
 91:   1195.95   0.006734   34.03  0.001757  ( 0.028510  0.030671  0.001903)
 92:   1202.69   0.017851   90.21  0.004632  (-0.066394  0.014628  0.003134)
 93:   1205.94   0.003297   16.66  0.000853  (-0.005115 -0.027915  0.006902)
 94:   1206.74   0.003050   15.41  0.000789  ( 0.003944  0.020122  0.019191)
 95:   1218.34   0.001443    7.29  0.000370  ( 0.010730 -0.006709 -0.014475)
 96:   1229.09   0.067143  339.31  0.017048  (-0.127479  0.019945  0.019969)
 97:   1235.27   0.002380   12.03  0.000601  ( 0.020807 -0.012870  0.001650)
 98:   1242.24   0.018298   92.47  0.004597  (-0.062200 -0.006407  0.026205)
 99:   1250.69   0.057615  291.16  0.014376  ( 0.019449  0.117162 -0.016449)
100:   1259.10   0.060617  306.34  0.015024  ( 0.020020  0.120579 -0.009147)
101:   1273.40   0.010354   52.33  0.002537  (-0.007116 -0.046401 -0.018270)
102:   1307.71   0.052496  265.29  0.012527  (-0.012816 -0.029572  0.107185)
103:   1314.88   0.008221   41.54  0.001951  ( 0.043681 -0.004516 -0.004755)
104:   1322.19   0.033516  169.38  0.007910  (-0.082845  0.003358  0.032186)
105:   1328.63   0.022131  111.84  0.005198  (-0.065844 -0.028022  0.008791)
106:   1349.32   0.065874  332.90  0.015235  ( 0.122854 -0.006019 -0.010284)
107:   1354.73   0.016278   82.26  0.003750  (-0.035456 -0.049718  0.004553)
108:   1360.55   0.007373   37.26  0.001691  (-0.009820  0.025236  0.030948)
109:   1370.95   0.021329  107.79  0.004855  (-0.021169 -0.065325  0.011814)
110:   1390.15   0.006853   34.63  0.001538  (-0.016589 -0.013617 -0.032828)
111:   1403.38   0.001913    9.67  0.000425  ( 0.015775 -0.002322 -0.013084)
112:   1423.84   0.044643  225.61  0.009784  ( 0.013011 -0.071060 -0.067569)
113:   1443.76   0.014588   73.72  0.003153  (-0.033191 -0.043972 -0.010863)
114:   1464.59   0.006028   30.46  0.001284  (-0.024034  0.011687  0.023877)
115:   1464.88   0.003062   15.47  0.000652  (-0.019809  0.015445 -0.004616)
116:   1465.26   0.003384   17.10  0.000721  (-0.000052 -0.026832 -0.000873)
117:   1466.17   0.013963   70.56  0.002972  ( 0.053407 -0.002488  0.010652)
118:   1468.70   0.005703   28.82  0.001212  (-0.014284 -0.031723  0.001165)
119:   1472.27   0.004977   25.15  0.001055  ( 0.004339 -0.025447  0.019710)
120:   1473.43   0.002779   14.04  0.000589  ( 0.009293 -0.000286 -0.022409)
121:   1475.63   0.002354   11.89  0.000498  ( 0.007470 -0.009374 -0.018817)
122:   1482.21   0.003295   16.65  0.000694  ( 0.017353  0.006946 -0.018555)
123:   1500.53   0.010061   50.84  0.002092  ( 0.011049  0.001820 -0.044350)
124:   1507.44   0.034888  176.31  0.007222  ( 0.074237  0.040777  0.006961)
125:   1542.22   0.028271  142.87  0.005721  ( 0.032354  0.013736 -0.066971)
126:   1616.39   0.015878   80.24  0.003065  (-0.021905 -0.050807 -0.002058)
127:   1631.76   0.140270  708.87  0.026826  (-0.072069  0.110704 -0.096833)
128:   1652.98   0.013261   67.02  0.002504  ( 0.006080 -0.009485  0.048751)
129:   1666.48   0.011593   58.59  0.002171  (-0.024950 -0.019874  0.033963)
130:   1705.37   0.044142  223.08  0.008077  (-0.073032 -0.052224  0.004064)
131:   1732.73   0.030368  153.47  0.005469  (-0.052691  0.025930 -0.044950)
132:   1764.39   0.078519  396.80  0.013887  ( 0.011718  0.011025 -0.116742)
133:   1794.03   0.108517  548.40  0.018876  (-0.072180 -0.027944  0.113513)
134:   2999.28   0.007360   37.19  0.000766  ( 0.021287  0.007440  0.016040)
135:   3042.06   0.011514   58.19  0.001181  ( 0.008544  0.010521  0.031583)
136:   3069.46   0.005889   29.76  0.000599  ( 0.022738 -0.002710  0.008620)
137:   3072.38   0.006269   31.68  0.000637  (-0.000564 -0.022896 -0.010590)
138:   3104.60   0.001813    9.16  0.000182  (-0.001112 -0.013155  0.002814)
139:   3116.27   0.006515   32.93  0.000652  (-0.015064  0.020606 -0.000965)
140:   3143.10   0.000975    4.93  0.000097  ( 0.005193  0.007418  0.003852)
141:   3151.04   0.004037   20.40  0.000400  (-0.001000 -0.019864 -0.002047)
142:   3156.04   0.003980   20.11  0.000394  (-0.017761  0.005362 -0.007022)
143:   3168.05   0.003261   16.48  0.000321  (-0.011997 -0.007796  0.010793)
144:   3186.20   0.000781    3.94  0.000076  ( 0.004666  0.003686  0.006410)
145:   3186.96   0.002694   13.62  0.000264  ( 0.010639  0.000503 -0.012264)
146:   3187.87   0.002928   14.80  0.000287  (-0.004154 -0.015034  0.006586)
147:   3189.00   0.002187   11.05  0.000214  ( 0.005787  0.008388 -0.010494)
148:   3189.91   0.000307    1.55  0.000030  ( 0.003218  0.004343 -0.000914)
149:   3196.35   0.001721    8.70  0.000168  ( 0.009178  0.007522  0.005217)
150:   3212.36   0.000257    1.30  0.000025  ( 0.004022 -0.002526  0.001546)
151:   3212.42   0.000318    1.61  0.000031  (-0.005532 -0.000434  0.000316)
152:   3214.20   0.003181   16.08  0.000309  (-0.008717 -0.006278  0.013908)
153:   3215.55   0.000828    4.19  0.000080  (-0.000606  0.006524 -0.006119)
154:   3230.15   0.000296    1.50  0.000029  ( 0.002396  0.002785  0.003891)
155:   3246.36   0.000678    3.42  0.000065  (-0.006999  0.002111 -0.003421)

--------------------------
THERMOCHEMISTRY AT 298.15K
--------------------------

Temperature         ... 298.15 K
Pressure            ... 1.00 atm
Total Mass          ... 414.41 AMU

Throughout the following assumptions are being made:
  (1) The electronic state is orbitally nondegenerate
  (2) There are no thermally accessible electronically excited states
  (3) Hindered rotations indicated by low frequency modes are not
      treated as such but are treated as vibrations and this may
      cause some error
  (4) All equations used are the standard statistical mechanics
      equations for an ideal gas
  (5) All vibrations are strictly harmonic

freq.      20.78  E(vib)   ...       0.56
freq.      26.99  E(vib)   ...       0.55
freq.      40.85  E(vib)   ...       0.54
freq.      48.08  E(vib)   ...       0.53
freq.      54.95  E(vib)   ...       0.52
freq.      66.77  E(vib)   ...       0.50
freq.      71.46  E(vib)   ...       0.50
freq.      75.02  E(vib)   ...       0.49
freq.      85.17  E(vib)   ...       0.48
freq.      91.55  E(vib)   ...       0.47
freq.      99.67  E(vib)   ...       0.46
freq.     117.05  E(vib)   ...       0.44
freq.     120.49  E(vib)   ...       0.44
freq.     127.41  E(vib)   ...       0.43
freq.     147.98  E(vib)   ...       0.41
freq.     153.52  E(vib)   ...       0.40
freq.     154.17  E(vib)   ...       0.40
freq.     160.84  E(vib)   ...       0.39
freq.     184.35  E(vib)   ...       0.37
freq.     202.67  E(vib)   ...       0.35
freq.     210.18  E(vib)   ...       0.34
freq.     214.94  E(vib)   ...       0.34
freq.     232.31  E(vib)   ...       0.32
freq.     236.93  E(vib)   ...       0.32
freq.     254.47  E(vib)   ...       0.30
freq.     283.20  E(vib)   ...       0.28
freq.     294.06  E(vib)   ...       0.27
freq.     305.70  E(vib)   ...       0.26
freq.     314.01  E(vib)   ...       0.25
freq.     332.64  E(vib)   ...       0.24
freq.     353.10  E(vib)   ...       0.22
freq.     366.28  E(vib)   ...       0.22
freq.     379.16  E(vib)   ...       0.21
freq.     419.48  E(vib)   ...       0.18
freq.     466.98  E(vib)   ...       0.16
freq.     481.88  E(vib)   ...       0.15
freq.     488.46  E(vib)   ...       0.15
freq.     501.61  E(vib)   ...       0.14
freq.     550.21  E(vib)   ...       0.12
freq.     567.48  E(vib)   ...       0.11
freq.     574.26  E(vib)   ...       0.11
freq.     586.62  E(vib)   ...       0.11
freq.     592.34  E(vib)   ...       0.10
freq.     612.80  E(vib)   ...       0.10
freq.     645.64  E(vib)   ...       0.09
freq.     656.26  E(vib)   ...       0.08
freq.     666.39  E(vib)   ...       0.08
freq.     692.67  E(vib)   ...       0.07
freq.     709.97  E(vib)   ...       0.07
freq.     722.40  E(vib)   ...       0.07
freq.     754.53  E(vib)   ...       0.06
freq.     759.35  E(vib)   ...       0.06
freq.     769.61  E(vib)   ...       0.05
freq.     782.70  E(vib)   ...       0.05
freq.     796.07  E(vib)   ...       0.05
freq.     811.78  E(vib)   ...       0.05
freq.     832.09  E(vib)   ...       0.04
freq.     846.88  E(vib)   ...       0.04
freq.     868.27  E(vib)   ...       0.04
freq.     872.22  E(vib)   ...       0.04
freq.     892.00  E(vib)   ...       0.03
freq.     896.73  E(vib)   ...       0.03
freq.     930.38  E(vib)   ...       0.03
freq.     939.87  E(vib)   ...       0.03
freq.     948.08  E(vib)   ...       0.03
freq.     956.74  E(vib)   ...       0.03
freq.     980.93  E(vib)   ...       0.02
freq.     981.15  E(vib)   ...       0.02
freq.     987.90  E(vib)   ...       0.02
freq.     998.72  E(vib)   ...       0.02
freq.    1006.46  E(vib)   ...       0.02
freq.    1015.42  E(vib)   ...       0.02
freq.    1018.96  E(vib)   ...       0.02
freq.    1040.56  E(vib)   ...       0.02
freq.    1047.26  E(vib)   ...       0.02
freq.    1057.53  E(vib)   ...       0.02
freq.    1070.53  E(vib)   ...       0.02
freq.    1084.26  E(vib)   ...       0.02
freq.    1085.55  E(vib)   ...       0.02
freq.    1146.27  E(vib)   ...       0.01
freq.    1156.10  E(vib)   ...       0.01
freq.    1170.91  E(vib)   ...       0.01
freq.    1171.12  E(vib)   ...       0.01
freq.    1172.16  E(vib)   ...       0.01
freq.    1174.10  E(vib)   ...       0.01
freq.    1195.95  E(vib)   ...       0.01
freq.    1202.69  E(vib)   ...       0.01
freq.    1205.94  E(vib)   ...       0.01
freq.    1206.74  E(vib)   ...       0.01
freq.    1218.34  E(vib)   ...       0.01
freq.    1229.09  E(vib)   ...       0.01
freq.    1235.27  E(vib)   ...       0.01
freq.    1242.24  E(vib)   ...       0.01
freq.    1250.69  E(vib)   ...       0.01
freq.    1259.10  E(vib)   ...       0.01
freq.    1273.40  E(vib)   ...       0.01
freq.    1307.71  E(vib)   ...       0.01
freq.    1314.88  E(vib)   ...       0.01
freq.    1322.19  E(vib)   ...       0.01
freq.    1328.63  E(vib)   ...       0.01
freq.    1349.32  E(vib)   ...       0.01
freq.    1354.73  E(vib)   ...       0.01
freq.    1360.55  E(vib)   ...       0.01
freq.    1370.95  E(vib)   ...       0.01
freq.    1390.15  E(vib)   ...       0.00
freq.    1403.38  E(vib)   ...       0.00
freq.    1423.84  E(vib)   ...       0.00
freq.    1443.76  E(vib)   ...       0.00
freq.    1464.59  E(vib)   ...       0.00
freq.    1464.88  E(vib)   ...       0.00
freq.    1465.26  E(vib)   ...       0.00
freq.    1466.17  E(vib)   ...       0.00
freq.    1468.70  E(vib)   ...       0.00
freq.    1472.27  E(vib)   ...       0.00
freq.    1473.43  E(vib)   ...       0.00
freq.    1475.63  E(vib)   ...       0.00
freq.    1482.21  E(vib)   ...       0.00
freq.    1500.53  E(vib)   ...       0.00
freq.    1507.44  E(vib)   ...       0.00
freq.    1542.22  E(vib)   ...       0.00
freq.    1616.39  E(vib)   ...       0.00
freq.    1631.76  E(vib)   ...       0.00
freq.    1652.98  E(vib)   ...       0.00
freq.    1666.48  E(vib)   ...       0.00
freq.    1705.37  E(vib)   ...       0.00
freq.    1732.73  E(vib)   ...       0.00
freq.    1764.39  E(vib)   ...       0.00
freq.    1794.03  E(vib)   ...       0.00
freq.    2999.28  E(vib)   ...       0.00
freq.    3042.06  E(vib)   ...       0.00
freq.    3069.46  E(vib)   ...       0.00
freq.    3072.38  E(vib)   ...       0.00
freq.    3104.60  E(vib)   ...       0.00
freq.    3116.27  E(vib)   ...       0.00
freq.    3143.10  E(vib)   ...       0.00
freq.    3151.04  E(vib)   ...       0.00
freq.    3156.04  E(vib)   ...       0.00
freq.    3168.05  E(vib)   ...       0.00
freq.    3186.20  E(vib)   ...       0.00
freq.    3186.96  E(vib)   ...       0.00
freq.    3187.87  E(vib)   ...       0.00
freq.    3189.00  E(vib)   ...       0.00
freq.    3189.91  E(vib)   ...       0.00
freq.    3196.35  E(vib)   ...       0.00

Rotational constants in cm-1:     0.007083     0.005328     0.003857

                             ****ORCA TERMINATED NORMALLY****
TOTAL RUN TIME: 0 days 2 hours 43 minutes 45 seconds 971 msec
