                         Program Version 5.0.4 -  RELEASE  -
|  1> %pal nprocs 24 end
|  2> ! PBE0 D3BJ def2-TZVP TightSCF OPT FREQ TightOpt
|  3> ! CPCM(dmso)
|  4> %scf
|  5> MaxIter 800
|  6> end
|  7>
|  8> %geom
|  9> MaxIter 800
| 10> MaxStep 0.15
| 11> end
| 12>
| 13> *xyz 0 1
| 14> C      -4.25764700     -0.78197500      0.16513300
| 15> C      -4.00601900     -1.72404200     -0.90186200
| 16> C      -2.71535900     -2.01075200     -1.20480900
| 17> N      -1.67472200     -1.47618700     -0.50528000
| 18> C      -1.82679600     -0.44203500      0.49040400
| 19> C      -3.25338100     -0.18169300      0.83905000
| 20> C      -0.31459300     -1.48592300     -0.94805900
| 21> C       0.53642800     -2.38499600     -0.05787000
| 22> O       0.14018300     -2.95424300      0.92761600
| 23> O       1.75294000     -2.52447300     -0.56529500
| 24> C       2.66724300     -3.33088600      0.16759900
| 25> H      -5.29233000     -0.56529300      0.44663800
| 26> H      -2.42838300     -2.69854700     -2.00432200
| 27> H      -1.23877300     -0.69591500      1.39051900
| 28> H      -3.44340200      0.51205300      1.65914400
| 29> H      -0.23999500     -1.90807100     -1.96068800
| 30> H       2.83266300     -2.90957000      1.16938400
| 31> H       3.60306800     -3.32667700     -0.40161900
| 32> C      -0.97573300      0.75063500     -0.11674200
| 33> C       0.07936900      0.04135000     -1.00907500
| 34> C       1.52933900      0.38783800     -0.81650500
| 35> C       2.29562900      0.83697400     -1.88840200
| 36> C       3.64898900      1.14802400     -1.73174500
| 37> C       4.24088600      1.01128400     -0.47989600
| 38> C       3.49530500      0.56366800      0.61453300
| 39> C       2.14886500      0.24885300      0.43903100
| 40> O       1.33437300     -0.19924400      1.41541700
| 41> C       1.80612500     -0.29623300      2.73979100
| 42> N      -1.92628200      1.54556400     -0.97226200
| 43> O      -2.15495000      1.16958500     -2.09809700
| 44> H      -0.17664000      0.34123100     -2.03125600
| 45> H       1.81931700      0.94639800     -2.86661200
| 46> H       4.23261700      1.49879300     -2.58549900
| 47> H       5.29733200      1.25438300     -0.34075100
| 48> H       3.96812200      0.45941700      1.59166100
| 49> H       0.96448800     -0.65997400      3.34076500
| 50> H       2.12839500      0.68718100      3.11833300
| 51> H       2.64277900     -1.00906300      2.81398100
| 52> O      -2.50314300      2.46152800     -0.42435000
| 53> H       2.28471200     -4.35649400      0.26623500
| 54> H      -4.82030400     -2.19451400     -1.45142200
| 55> C      -0.52084300      1.71011100      0.98000500
| 56> O      -0.87302100      1.63251300      2.12893800
| 57> O       0.27042700      2.64747400      0.49332200
| 58> C       0.76756600      3.61194900      1.41736600
| 59> H      -0.06375900      4.15372200      1.88956300
| 60> H       1.36900900      3.11782100      2.19356600
| 61> H       1.39029900      4.29808000      0.83386000
| 62> *
| 63>
| 64>                          ****END OF INPUT****
 Total Charge           Charge          ....    0
 Multiplicity           Mult            ....    1
 Number of Electrons    NEL             ....  204
Dispersion correction           -0.066440277
FINAL SINGLE POINT ENERGY     -1371.076632169088
Dispersion correction            ... done
Dispersion correction           -0.065994617
FINAL SINGLE POINT ENERGY     -1371.078078922630
Dispersion correction            ... done
Dispersion correction           -0.066563289
FINAL SINGLE POINT ENERGY     -1371.075886280105
Dispersion correction            ... done
FINAL SINGLE POINT ENERGY     -1371.078330853664
FINAL SINGLE POINT ENERGY     -1371.077109860425
FINAL SINGLE POINT ENERGY     -1371.078381168760
FINAL SINGLE POINT ENERGY     -1371.077887574113
FINAL SINGLE POINT ENERGY     -1371.078453804765
FINAL SINGLE POINT ENERGY     -1371.078462730233
FINAL SINGLE POINT ENERGY     -1371.078466984658
FINAL SINGLE POINT ENERGY     -1371.078471193869
FINAL SINGLE POINT ENERGY     -1371.078474767118
Dispersion correction           -0.066199048
FINAL SINGLE POINT ENERGY     -1371.078481022210
Dispersion correction            ... done
Dispersion correction           -0.066193116
FINAL SINGLE POINT ENERGY     -1371.078480876706
Dispersion correction            ... done
                    ***********************HURRAY********************

CARTESIAN COORDINATES (ANGSTROEM)
---------------------------------
  C     -4.266510   -0.779334    0.100241
  C     -3.990346   -1.721794   -0.952780
  C     -2.701003   -2.010817   -1.220554
  N     -1.679036   -1.478840   -0.499022
  C     -1.853786   -0.433990    0.477925
  C     -3.284647   -0.174769    0.787216
  C     -0.315227   -1.493636   -0.922519
  C      0.525709   -2.396740   -0.028865
  O      0.120858   -2.961810    0.954341
  O      1.740182   -2.548678   -0.534816
  C      2.636746   -3.378247    0.209241
  H     -5.298933   -0.564624    0.355539
  H     -2.398210   -2.696374   -2.003437
  H     -1.293197   -0.678879    1.387944
  H     -3.495834    0.519582    1.589781
  H     -0.234177   -1.910948   -1.927980
  H      2.773907   -2.977836    1.213723
  H      3.575687   -3.360909   -0.337603
  C     -0.978537    0.752288   -0.111352
  C      0.079101    0.031395   -0.986804
  C      1.526060    0.382675   -0.806148
  C      2.264460    0.825300   -1.891702
  C      3.611275    1.146989   -1.768233
  C      4.226301    1.026486   -0.533948
  C      3.509671    0.585103    0.573090
  C      2.168997    0.260657    0.430592
  O      1.382706   -0.184228    1.433027
  C      1.914766   -0.252728    2.742771
  N     -1.901765    1.573143   -0.970358
  O     -2.113630    1.223966   -2.109106
  H     -0.172896    0.316405   -2.006761
  H      1.771059    0.921665   -2.853351
  H      4.169138    1.492089   -2.630331
  H      5.274883    1.276664   -0.418838
  H      3.999708    0.494009    1.533337
  H      1.103234   -0.601154    3.377667
  H      2.248046    0.732662    3.079065
  H      2.747500   -0.958935    2.790617
  O     -2.479072    2.486435   -0.415988
  H      2.248209   -4.394883    0.269222
  H     -4.784134   -2.190824   -1.515156
  C     -0.532193    1.695904    1.003078
  O     -0.900256    1.603019    2.143773
  O      0.268345    2.635072    0.537469
  C      0.740487    3.594139    1.490895
  H     -0.100070    4.136856    1.923329
  H      1.301475    3.091091    2.278530
  H      1.385339    4.267012    0.932674

 Multiplicity           Mult            ....    1
 Number of Electrons    NEL             ....  204
 Basis Dimension        Dim             ....  988

ORBITAL ENERGIES
----------------

  NO   OCC          E(Eh)            E(eV)
   0   2.0000     -19.270625      -524.3804
   1   2.0000     -19.264027      -524.2008
   2   2.0000     -19.257986      -524.0364
   3   2.0000     -19.256219      -523.9884
   4   2.0000     -19.251323      -523.8551
   5   2.0000     -19.210657      -522.7486
   6   2.0000     -19.203067      -522.5420
   7   2.0000     -14.631495      -398.1432
   8   2.0000     -14.428018      -392.6063
   9   2.0000     -10.373138      -282.2674
  10   2.0000     -10.359556      -281.8979
  11   2.0000     -10.315351      -280.6950
  12   2.0000     -10.291388      -280.0429
  13   2.0000     -10.290802      -280.0270
  14   2.0000     -10.290317      -280.0138
  15   2.0000     -10.273518      -279.5566
  16   2.0000     -10.270728      -279.4807
  17   2.0000     -10.269640      -279.4511
  18   2.0000     -10.268622      -279.4234
  19   2.0000     -10.267186      -279.3843
  20   2.0000     -10.241821      -278.6941
  21   2.0000     -10.232115      -278.4300
  22   2.0000     -10.231068      -278.4015
  23   2.0000     -10.231046      -278.4009
  24   2.0000     -10.227170      -278.2954
  25   2.0000     -10.224838      -278.2320
  26   2.0000     -10.222359      -278.1645
  27   2.0000     -10.208582      -277.7896
  28   2.0000      -1.290384       -35.1131
  29   2.0000      -1.163110       -31.6498
  30   2.0000      -1.154587       -31.4179
  31   2.0000      -1.114563       -30.3288
  32   2.0000      -1.110788       -30.2261
  33   2.0000      -1.070452       -29.1285
  34   2.0000      -1.062410       -28.9097
  35   2.0000      -1.024971       -27.8909
  36   2.0000      -0.904511       -24.6130
  37   2.0000      -0.884374       -24.0650
  38   2.0000      -0.857666       -23.3383
  39   2.0000      -0.813738       -22.1429
  40   2.0000      -0.798085       -21.7170
  41   2.0000      -0.784485       -21.3469
  42   2.0000      -0.780490       -21.2382
  43   2.0000      -0.761791       -20.7294
  44   2.0000      -0.748922       -20.3792
  45   2.0000      -0.722917       -19.6716
  46   2.0000      -0.709128       -19.2964
  47   2.0000      -0.673776       -18.3344
  48   2.0000      -0.655035       -17.8244
  49   2.0000      -0.646108       -17.5815
  50   2.0000      -0.633438       -17.2367
  51   2.0000      -0.615520       -16.7491
  52   2.0000      -0.600894       -16.3512
  53   2.0000      -0.597475       -16.2581
  54   2.0000      -0.584427       -15.9031
  55   2.0000      -0.581029       -15.8106
  56   2.0000      -0.564892       -15.3715
  57   2.0000      -0.554769       -15.0960
  58   2.0000      -0.549326       -14.9479
  59   2.0000      -0.540779       -14.7153
  60   2.0000      -0.530103       -14.4248
  61   2.0000      -0.522107       -14.2072
  62   2.0000      -0.519298       -14.1308
  63   2.0000      -0.513068       -13.9613
  64   2.0000      -0.507816       -13.8184
  65   2.0000      -0.502497       -13.6736
  66   2.0000      -0.500833       -13.6284
  67   2.0000      -0.486307       -13.2331
  68   2.0000      -0.483272       -13.1505
  69   2.0000      -0.480833       -13.0841
  70   2.0000      -0.467637       -12.7251
  71   2.0000      -0.463644       -12.6164
  72   2.0000      -0.457189       -12.4407
  73   2.0000      -0.442336       -12.0366
  74   2.0000      -0.442030       -12.0282
  75   2.0000      -0.440996       -12.0001
  76   2.0000      -0.433535       -11.7971
  77   2.0000      -0.421376       -11.4662
  78   2.0000      -0.418076       -11.3764
  79   2.0000      -0.405979       -11.0473
  80   2.0000      -0.403555       -10.9813
  81   2.0000      -0.397186       -10.8080
  82   2.0000      -0.384737       -10.4692
  83   2.0000      -0.383284       -10.4297
  84   2.0000      -0.380655       -10.3582
  85   2.0000      -0.379878       -10.3370
  86   2.0000      -0.371608       -10.1120
  87   2.0000      -0.367476        -9.9995
  88   2.0000      -0.361233        -9.8297
  89   2.0000      -0.350017        -9.5244
  90   2.0000      -0.348718        -9.4891
  91   2.0000      -0.344634        -9.3780
  92   2.0000      -0.340168        -9.2565
  93   2.0000      -0.333925        -9.0866
  94   2.0000      -0.330865        -9.0033
  95   2.0000      -0.329770        -8.9735
  96   2.0000      -0.313256        -8.5241
  97   2.0000      -0.312275        -8.4974
  98   2.0000      -0.298829        -8.1315
  99   2.0000      -0.272241        -7.4081
 100   2.0000      -0.241886        -6.5821
 101   2.0000      -0.202465        -5.5094
 102   0.0000      -0.077955        -2.1213
 103   0.0000      -0.028463        -0.7745
 104   0.0000      -0.017417        -0.4740
 105   0.0000      -0.013054        -0.3552
 106   0.0000      -0.000557        -0.0152

MULLIKEN ATOMIC CHARGES
-----------------------
   0 C :   -0.130386
   1 C :   -0.235665
   2 C :   -0.137920
   3 N :    0.038579
   4 C :    0.002332
   5 C :   -0.316537
   6 C :   -0.014851
   7 C :    0.280625
   8 O :   -0.384235
   9 O :   -0.216618
  10 C :   -0.258864
  11 H :    0.151534
  12 H :    0.171716
  13 H :    0.130480
  14 H :    0.153752
  15 H :    0.154787
  16 H :    0.152846
  17 H :    0.161772
  18 C :    0.103088
  19 C :    0.111304
  20 C :    0.018683
  21 C :   -0.251400
  22 C :   -0.206451
  23 C :   -0.139562
  24 C :   -0.322370
  25 C :    0.290934
  26 O :   -0.258296
  27 C :   -0.295792
  28 N :    0.483733
  29 O :   -0.341008
  30 H :    0.141027
  31 H :    0.146322
  32 H :    0.146188
  33 H :    0.151511
  34 H :    0.164923
  35 H :    0.163221
  36 H :    0.159135
  37 H :    0.160671
  38 O :   -0.336099
  39 H :    0.158291
  40 H :    0.157297
  41 C :    0.240866
  42 O :   -0.365039
  43 O :   -0.194721
  44 C :   -0.276645
  45 H :    0.161363
  46 H :    0.159943
  47 H :    0.165537
Sum of atomic charges:   -0.0000000

LOEWDIN ATOMIC CHARGES
----------------------
   0 C :   -0.158091
   1 C :   -0.224601
   2 C :   -0.177809
   3 N :    0.264873
   4 C :   -0.186901
   5 C :   -0.159430
   6 C :   -0.173312
   7 C :   -0.482884
   8 O :    0.088558
   9 O :    0.279299
  10 C :   -0.302063
  11 H :    0.156122
  12 H :    0.160922
  13 H :    0.176632
  14 H :    0.152469
  15 H :    0.185930
  16 H :    0.119263
  17 H :    0.123157
  18 C :   -0.158202
  19 C :   -0.113356
  20 C :   -0.115975
  21 C :   -0.109254
  22 C :   -0.164052
  23 C :   -0.143002
  24 C :   -0.136830
  25 C :   -0.242642
  26 O :    0.280105
  27 C :   -0.325652
  28 N :   -0.030833
  29 O :   -0.012656
  30 H :    0.189335
  31 H :    0.159984
  32 H :    0.152412
  33 H :    0.154826
  34 H :    0.161679
  35 H :    0.123393
  36 H :    0.119811
  37 H :    0.118936
  38 O :   -0.010922
  39 H :    0.120361
  40 H :    0.150472
  41 C :   -0.489574
  42 O :    0.114821
  43 O :    0.291400
  44 C :   -0.294768
  45 H :    0.122423
  46 H :    0.121087
  47 H :    0.124540

  Mayer bond orders larger than 0.100000
B(  0-C ,  1-C ) :   1.1010 B(  0-C ,  5-C ) :   1.8474 B(  0-C , 11-H ) :   0.9591
B(  1-C ,  2-C ) :   1.6730 B(  1-C , 40-H ) :   0.9675 B(  2-C ,  3-N ) :   1.2041
B(  2-C , 12-H ) :   0.9446 B(  3-N ,  4-C ) :   0.9642 B(  3-N ,  6-C ) :   0.9548
B(  4-C ,  5-C ) :   0.9374 B(  4-C ,  6-C ) :   0.1142 B(  4-C , 13-H ) :   0.9176
B(  4-C , 18-C ) :   0.9291 B(  5-C , 14-H ) :   0.9615 B(  6-C ,  7-C ) :   0.9622
B(  6-C , 15-H ) :   0.8974 B(  6-C , 19-C ) :   0.9928 B(  6-C , 20-C ) :   0.1038
B(  7-C ,  8-O ) :   2.0022 B(  7-C ,  9-O ) :   1.2368 B(  9-O , 10-C ) :   0.8848
B( 10-C , 16-H ) :   0.9705 B( 10-C , 17-H ) :   0.9648 B( 10-C , 39-H ) :   0.9630
B( 18-C , 19-C ) :   1.0362 B( 18-C , 28-N ) :   0.8857 B( 18-C , 41-C ) :   0.8841
B( 19-C , 20-C ) :   0.7759 B( 19-C , 30-H ) :   0.8879 B( 20-C , 21-C ) :   1.3729
B( 20-C , 25-C ) :   1.1994 B( 21-C , 22-C ) :   1.3888 B( 21-C , 31-H ) :   0.9832
B( 22-C , 23-C ) :   1.3991 B( 22-C , 32-H ) :   0.9850 B( 23-C , 24-C ) :   1.3774
B( 23-C , 33-H ) :   0.9706 B( 24-C , 25-C ) :   1.4081 B( 24-C , 34-H ) :   0.9645
B( 25-C , 26-O ) :   1.0641 B( 26-O , 27-C ) :   0.9210 B( 27-C , 35-H ) :   0.9653
B( 27-C , 36-H ) :   0.9627 B( 27-C , 37-H ) :   0.9587 B( 28-N , 29-O ) :   1.5704
B( 28-N , 38-O ) :   1.5929 B( 29-O , 38-O ) :   0.1924 B( 41-C , 42-O ) :   1.9799
B( 41-C , 43-O ) :   1.2973 B( 43-O , 44-C ) :   0.8791 B( 44-C , 45-H ) :   0.9624
B( 44-C , 46-H ) :   0.9671 B( 44-C , 47-H ) :   0.9649

Dispersion correction           -0.066188811
FINAL SINGLE POINT ENERGY     -1371.078481621708

DIPOLE MOMENT
-------------
                                X             Y             Z
Electronic contribution:    -10.52053       2.65862      -6.53453
Nuclear contribution   :     14.02436      -3.16144       6.53989
                        -----------------------------------------
Total Dipole Moment    :      3.50383      -0.50282       0.00536
                        -----------------------------------------
Magnitude (a.u.)       :      3.53973
Magnitude (Debye)      :      8.99728

Dispersion correction in the Hessian             ... done   (      0.7 sec)

VIBRATIONAL FREQUENCIES
-----------------------

Scaling factor for frequencies =  1.000000000  (already applied!)

   0:         0.00 cm**-1
   1:         0.00 cm**-1
   2:         0.00 cm**-1
   3:         0.00 cm**-1
   4:         0.00 cm**-1
   5:         0.00 cm**-1
   6:        18.20 cm**-1
   7:        45.14 cm**-1
   8:        56.20 cm**-1
   9:        71.83 cm**-1
  10:        74.60 cm**-1
  11:        86.09 cm**-1
  12:        86.76 cm**-1
  13:        89.66 cm**-1
  14:        99.92 cm**-1
  15:       103.88 cm**-1
  16:       115.06 cm**-1
  17:       125.84 cm**-1
  18:       132.85 cm**-1
  19:       147.71 cm**-1
  20:       151.03 cm**-1
  21:       167.27 cm**-1
  22:       195.53 cm**-1
  23:       198.12 cm**-1
  24:       205.75 cm**-1
  25:       225.80 cm**-1
  26:       236.94 cm**-1
  27:       246.16 cm**-1
  28:       265.68 cm**-1
  29:       282.74 cm**-1
  30:       292.38 cm**-1
  31:       302.78 cm**-1
  32:       323.97 cm**-1
  33:       342.49 cm**-1
  34:       347.79 cm**-1
  35:       375.97 cm**-1
  36:       418.60 cm**-1
  37:       452.59 cm**-1
  38:       471.60 cm**-1
  39:       482.70 cm**-1
  40:       508.70 cm**-1
  41:       549.72 cm**-1
  42:       568.50 cm**-1
  43:       584.93 cm**-1
  44:       588.04 cm**-1
  45:       605.99 cm**-1
  46:       623.48 cm**-1
  47:       648.66 cm**-1
  48:       661.93 cm**-1
  49:       676.74 cm**-1
  50:       699.75 cm**-1
  51:       712.23 cm**-1
  52:       758.53 cm**-1
  53:       764.76 cm**-1
  54:       773.92 cm**-1
  55:       798.72 cm**-1
  56:       803.76 cm**-1
  57:       821.71 cm**-1
  58:       832.78 cm**-1
  59:       847.54 cm**-1
  60:       870.70 cm**-1
  61:       874.91 cm**-1
  62:       894.86 cm**-1
  63:       923.09 cm**-1
  64:       944.69 cm**-1
  65:       948.01 cm**-1
  66:       957.63 cm**-1
  67:       972.54 cm**-1
  68:       989.04 cm**-1
  69:      1001.04 cm**-1
  70:      1009.88 cm**-1
  71:      1012.31 cm**-1
  72:      1025.01 cm**-1
  73:      1042.11 cm**-1
  74:      1055.52 cm**-1
  75:      1070.06 cm**-1
  76:      1083.17 cm**-1
  77:      1088.12 cm**-1
  78:      1146.07 cm**-1
  79:      1154.56 cm**-1
  80:      1155.78 cm**-1
  81:      1170.58 cm**-1
  82:      1170.86 cm**-1
  83:      1173.05 cm**-1
  84:      1173.64 cm**-1
  85:      1194.15 cm**-1
  86:      1205.56 cm**-1
  87:      1205.90 cm**-1
  88:      1215.26 cm**-1
  89:      1226.61 cm**-1
  90:      1242.66 cm**-1
  91:      1251.62 cm**-1
  92:      1257.34 cm**-1
  93:      1271.99 cm**-1
  94:      1305.71 cm**-1
  95:      1309.12 cm**-1
  96:      1319.28 cm**-1
  97:      1326.78 cm**-1
  98:      1350.98 cm**-1
  99:      1368.23 cm**-1
 100:      1376.01 cm**-1
 101:      1393.12 cm**-1
 102:      1405.24 cm**-1
 103:      1424.03 cm**-1
 104:      1442.56 cm**-1
 105:      1464.65 cm**-1
 106:      1465.62 cm**-1
 107:      1465.98 cm**-1
 108:      1468.61 cm**-1
 109:      1469.93 cm**-1
 110:      1471.20 cm**-1
 111:      1471.68 cm**-1
 112:      1475.04 cm**-1
 113:      1483.80 cm**-1
 114:      1500.48 cm**-1
 115:      1504.17 cm**-1
 116:      1542.60 cm**-1
 117:      1617.65 cm**-1
 118:      1639.09 cm**-1
 119:      1654.73 cm**-1
 120:      1666.53 cm**-1
 121:      1706.09 cm**-1
 122:      1794.85 cm**-1
 123:      1802.36 cm**-1
 124:      3035.97 cm**-1
 125:      3044.29 cm**-1
 126:      3074.06 cm**-1
 127:      3074.67 cm**-1
 128:      3109.22 cm**-1
 129:      3118.40 cm**-1
 130:      3135.50 cm**-1
 131:      3157.59 cm**-1
 132:      3159.89 cm**-1
 133:      3171.29 cm**-1
 134:      3186.85 cm**-1
 135:      3188.72 cm**-1
 136:      3190.41 cm**-1
 137:      3195.54 cm**-1
 138:      3196.77 cm**-1
 139:      3214.31 cm**-1
 140:      3214.38 cm**-1
 141:      3225.66 cm**-1
 142:      3228.96 cm**-1
 143:      3246.80 cm**-1

IR SPECTRUM
-----------

 Mode   freq       eps      Int      T**2         TX        TY        TZ
       cm**-1   L/(mol*cm) km/mol    a.u.
----------------------------------------------------------------------------
  6:     18.20   0.000026    0.13  0.000449  (-0.003726 -0.018970 -0.008680)
  7:     45.14   0.000071    0.36  0.000492  (-0.015690  0.014685  0.005534)
  8:     56.20   0.000714    3.61  0.003967  (-0.040135  0.043726 -0.021069)
  9:     71.83   0.000202    1.02  0.000878  ( 0.002214 -0.025879  0.014248)
 10:     74.60   0.000505    2.55  0.002111  ( 0.023118  0.033465  0.021375)
 11:     86.09   0.000204    1.03  0.000739  ( 0.019465 -0.010575 -0.015759)
 12:     86.76   0.000224    1.13  0.000807  (-0.010151 -0.025990 -0.005369)
 13:     89.66   0.001302    6.58  0.004532  ( 0.036956 -0.054456 -0.014186)
 14:     99.92   0.000904    4.57  0.002822  ( 0.034492 -0.023201  0.033079)
 15:    103.88   0.000392    1.98  0.001177  (-0.021132 -0.023202  0.013860)
 16:    115.06   0.000261    1.32  0.000709  (-0.002969  0.025606  0.006686)
 17:    125.84   0.000498    2.52  0.001236  (-0.004501  0.031297  0.015374)
 18:    132.85   0.000161    0.81  0.000379  ( 0.000167  0.006350  0.018390)
 19:    147.71   0.000298    1.50  0.000629  (-0.014818 -0.017062 -0.010865)
 20:    151.03   0.000410    2.07  0.000847  (-0.012547 -0.025614 -0.005795)
 21:    167.27   0.000263    1.33  0.000491  ( 0.020469  0.008013 -0.002792)
 22:    195.53   0.000768    3.88  0.001226  (-0.004130  0.030387  0.016906)
 23:    198.12   0.000056    0.28  0.000088  ( 0.002436  0.008022  0.004209)
 24:    205.75   0.000512    2.59  0.000776  ( 0.008544  0.013340  0.022913)
 25:    225.80   0.000535    2.70  0.000739  ( 0.011909 -0.024429 -0.000444)
 26:    236.94   0.000980    4.95  0.001291  ( 0.032858  0.001855 -0.014408)
 27:    246.16   0.000300    1.51  0.000380  ( 0.003971  0.019010 -0.001602)
 28:    265.68   0.003812   19.26  0.004477  (-0.028963  0.058260  0.015629)
 29:    282.74   0.000203    1.03  0.000224  ( 0.011937  0.005361  0.007269)
 30:    292.38   0.007261   36.70  0.007750  (-0.078263 -0.037935  0.013638)
 31:    302.78   0.000761    3.85  0.000784  (-0.019087 -0.019853  0.005079)
 32:    323.97   0.000964    4.87  0.000929  ( 0.023179  0.019442  0.003672)
 33:    342.49   0.002301   11.63  0.002096  ( 0.006639  0.045270 -0.001687)
 34:    347.79   0.000296    1.50  0.000266  (-0.012675  0.005487  0.008646)
 35:    375.97   0.002372   11.99  0.001969  (-0.037348  0.019927 -0.013302)
 36:    418.60   0.004755   24.03  0.003545  ( 0.001729 -0.050409  0.031639)
 37:    452.59   0.000449    2.27  0.000310  (-0.006437 -0.015387  0.005597)
 38:    471.60   0.002414   12.20  0.001598  (-0.013351  0.033204 -0.017797)
 39:    482.70   0.000205    1.04  0.000133  ( 0.011304  0.002219 -0.000155)
 40:    508.70   0.001888    9.54  0.001158  ( 0.004403  0.033698 -0.001721)
 41:    549.72   0.003567   18.02  0.002025  ( 0.014096 -0.042405 -0.005272)
 42:    568.50   0.005839   29.51  0.003205  (-0.054205 -0.004858  0.015599)
 43:    584.93   0.002819   14.25  0.001504  ( 0.025150 -0.003179  0.029347)
 44:    588.04   0.002062   10.42  0.001094  (-0.002291  0.016191  0.028751)
 45:    605.99   0.007331   37.05  0.003775  (-0.044776  0.039355  0.014890)
 46:    623.48   0.004118   20.81  0.002061  ( 0.025837  0.025535  0.027229)
 47:    648.66   0.001961    9.91  0.000943  ( 0.015184  0.026667  0.001301)
 48:    661.93   0.011261   56.91  0.005309  (-0.045326  0.038887 -0.041739)
 49:    676.74   0.000736    3.72  0.000340  ( 0.009338  0.014618 -0.006215)
 50:    699.75   0.001495    7.55  0.000667  ( 0.000381  0.025713 -0.002291)
 51:    712.23   0.015807   79.88  0.006926  (-0.013993 -0.056121  0.059836)
 52:    758.53   0.007016   35.46  0.002887  (-0.001020 -0.052244 -0.012493)
 53:    764.76   0.003481   17.59  0.001420  (-0.011571  0.035865  0.000266)
 54:    773.92   0.016029   81.00  0.006463  ( 0.024352 -0.072929 -0.023486)
 55:    798.72   0.001433    7.24  0.000560  ( 0.010894 -0.008279  0.019303)
 56:    803.76   0.007466   37.73  0.002899  (-0.016283 -0.034817  0.037702)
 57:    821.71   0.023349  118.00  0.008867  (-0.035998 -0.087013  0.000526)
 58:    832.78   0.014728   74.43  0.005519  (-0.007398 -0.072856  0.012496)
 59:    847.54   0.015594   78.81  0.005742  ( 0.029240  0.044235 -0.054130)
 60:    870.70   0.002290   11.57  0.000821  (-0.022956  0.017011  0.002087)
 61:    874.91   0.001301    6.57  0.000464  (-0.016875  0.013351 -0.000948)
 62:    894.86   0.002631   13.30  0.000918  ( 0.015245  0.017768  0.019220)
 63:    923.09   0.004089   20.66  0.001382  (-0.016864  0.032827 -0.004500)
 64:    944.69   0.001820    9.20  0.000601  ( 0.009841  0.018564  0.012634)
 65:    948.01   0.001571    7.94  0.000517  ( 0.021623 -0.004178  0.005666)
 66:    957.63   0.000593    3.00  0.000193  ( 0.001643  0.011214  0.008054)
 67:    972.54   0.024814  125.40  0.007962  (-0.022067  0.083159 -0.023659)
 68:    989.04   0.000116    0.59  0.000037  ( 0.001769 -0.005622  0.001355)
 69:   1001.04   0.001005    5.08  0.000313  (-0.011755  0.006092 -0.011742)
 70:   1009.88   0.006826   34.49  0.002109  ( 0.022737 -0.013264  0.037635)
 71:   1012.31   0.002449   12.38  0.000755  ( 0.010811  0.022273  0.011913)
 72:   1025.01   0.003407   17.22  0.001037  (-0.012890  0.026677  0.012628)
 73:   1042.11   0.008085   40.86  0.002421  ( 0.026421 -0.039129 -0.013851)
 74:   1055.52   0.004643   23.46  0.001373  ( 0.030862 -0.006893  0.019303)
 75:   1070.06   0.009489   47.96  0.002767  (-0.030788 -0.000209 -0.042655)
 76:   1083.17   0.013257   66.99  0.003819  ( 0.005310  0.007859 -0.061068)
 77:   1088.12   0.000955    4.83  0.000274  (-0.000436 -0.015178 -0.006588)
 78:   1146.07   0.011226   56.73  0.003057  ( 0.007737 -0.013914  0.052946)
 79:   1154.56   0.005094   25.75  0.001377  (-0.031771  0.000321 -0.019169)
 80:   1155.78   0.017716   89.53  0.004783  ( 0.026238  0.054690  0.033225)
 81:   1170.58   0.000345    1.74  0.000092  ( 0.002418  0.007566  0.005374)
 82:   1170.86   0.000193    0.98  0.000052  ( 0.006237 -0.003025  0.001872)
 83:   1173.05   0.000344    1.74  0.000092  ( 0.002345  0.001240  0.009197)
 84:   1173.64   0.000731    3.70  0.000194  (-0.005917  0.004625 -0.011750)
 85:   1194.15   0.005022   25.38  0.001312  (-0.033095  0.010869 -0.009947)
 86:   1205.56   0.002289   11.57  0.000593  ( 0.014763 -0.012522 -0.014761)
 87:   1205.90   0.004399   22.23  0.001138  (-0.026470  0.012727 -0.016608)
 88:   1215.26   0.000123    0.62  0.000031  (-0.004808 -0.002427 -0.001577)
 89:   1226.61   0.006888   34.81  0.001752  ( 0.028345  0.030621  0.003358)
 90:   1242.66   0.018748   94.74  0.004708  ( 0.058635  0.030987 -0.017600)
 91:   1251.62   0.045909  232.01  0.011446  (-0.078228  0.071793  0.013133)
 92:   1257.34   0.064832  327.63  0.016091  (-0.103313  0.072373  0.013398)
 93:   1271.99   0.034867  176.20  0.008554  ( 0.082663  0.023743  0.034017)
 94:   1305.71   0.080233  405.47  0.019176  ( 0.098150  0.079890 -0.056213)
 95:   1309.12   0.026085  131.82  0.006218  (-0.008563 -0.017208 -0.076476)
 96:   1319.28   0.009610   48.57  0.002273  (-0.015523 -0.030757  0.032959)
 97:   1326.78   0.034640  175.06  0.008147  (-0.079394 -0.037283 -0.021306)
 98:   1350.98   0.003252   16.43  0.000751  ( 0.026696 -0.000239 -0.006201)
 99:   1368.23   0.019716   99.63  0.004497  ( 0.057754  0.030015 -0.016135)
100:   1376.01   0.024579  124.21  0.005574  ( 0.043011 -0.060236  0.009799)
101:   1393.12   0.011159   56.39  0.002500  ( 0.021946  0.025900  0.036703)
102:   1405.24   0.002347   11.86  0.000521  ( 0.012046  0.005044  0.018726)
103:   1424.03   0.051122  258.35  0.011203  ( 0.024192 -0.091520  0.047348)
104:   1442.56   0.017083   86.33  0.003696  (-0.053546  0.017142 -0.023119)
105:   1464.65   0.003663   18.51  0.000780  ( 0.003943  0.026087  0.009184)
106:   1465.62   0.003962   20.02  0.000844  ( 0.000304 -0.008438  0.027791)
107:   1465.98   0.004234   21.40  0.000901  ( 0.017931 -0.024039  0.001395)
108:   1468.61   0.006167   31.17  0.001310  (-0.022382  0.028164  0.004038)
109:   1469.93   0.012965   65.52  0.002752  (-0.041518 -0.030681 -0.009347)
110:   1471.20   0.004363   22.05  0.000925  (-0.006057 -0.029129  0.006345)
111:   1471.68   0.003347   16.91  0.000710  (-0.012671  0.012095  0.020070)
112:   1475.04   0.003436   17.36  0.000727  (-0.008029 -0.010670  0.023421)
113:   1483.80   0.002643   13.36  0.000556  (-0.016959 -0.007244  0.014688)
114:   1500.48   0.009899   50.02  0.002059  (-0.013223 -0.018890  0.039077)
115:   1504.17   0.027740  140.19  0.005755  (-0.069244 -0.018560 -0.024819)
116:   1542.60   0.029102  147.07  0.005887  (-0.036022 -0.026601  0.062306)
117:   1617.65   0.026458  133.71  0.005104  ( 0.066550 -0.025329 -0.005799)
118:   1639.09   0.128319  648.47  0.024430  (-0.038755  0.089062  0.122460)
119:   1654.73   0.018039   91.16  0.003402  ( 0.009632 -0.004307 -0.057363)
120:   1666.53   0.011051   55.85  0.002069  ( 0.032331  0.013939 -0.028805)
121:   1706.09   0.037031  187.14  0.006773  ( 0.079910  0.016487  0.010771)
122:   1794.85   0.074339  375.68  0.012925  (-0.068136 -0.049762  0.076198)
123:   1802.36   0.128539  649.59  0.022255  (-0.074951 -0.042466  0.121797)
124:   3035.97   0.002322   11.73  0.000239  (-0.010722 -0.004761 -0.010051)
125:   3044.29   0.010629   53.71  0.001090  ( 0.010961 -0.003359  0.030953)
126:   3074.06   0.006358   32.13  0.000645  (-0.016700  0.016268 -0.010093)
127:   3074.67   0.005201   26.28  0.000528  (-0.008419 -0.016226 -0.013918)
128:   3109.22   0.001293    6.53  0.000130  (-0.010001  0.004991  0.002198)
129:   3118.40   0.007048   35.62  0.000705  ( 0.008089 -0.025037 -0.003608)
130:   3135.50   0.001308    6.61  0.000130  (-0.008825  0.004402 -0.005734)
131:   3157.59   0.003882   19.62  0.000384  ( 0.006247  0.014985  0.010957)
132:   3159.89   0.003251   16.43  0.000321  ( 0.014078 -0.010619  0.003182)
133:   3171.29   0.003077   15.55  0.000303  (-0.013915 -0.005709  0.008751)
134:   3186.85   0.000797    4.03  0.000078  (-0.005756 -0.000168 -0.006699)
135:   3188.72   0.003270   16.53  0.000320  ( 0.015815 -0.004929 -0.006753)
136:   3190.41   0.002149   10.86  0.000210  (-0.011101 -0.001146  0.009257)
137:   3195.54   0.001788    9.04  0.000175  ( 0.007232  0.007857 -0.007784)
138:   3196.77   0.001664    8.41  0.000162  (-0.011146 -0.001578 -0.005976)
139:   3214.31   0.001111    5.61  0.000108  (-0.007589 -0.005202  0.004814)
140:   3214.38   0.002167   10.95  0.000210  (-0.008115 -0.003504  0.011500)
141:   3225.66   0.000414    2.09  0.000040  (-0.005240  0.000533  0.003505)
142:   3228.96   0.000293    1.48  0.000028  (-0.003539  0.000174 -0.003970)
143:   3246.80   0.000625    3.16  0.000060  ( 0.001668  0.005309  0.005392)

--------------------------
THERMOCHEMISTRY AT 298.15K
--------------------------

Temperature         ... 298.15 K
Pressure            ... 1.00 atm
Total Mass          ... 388.38 AMU

Throughout the following assumptions are being made:
  (1) The electronic state is orbitally nondegenerate
  (2) There are no thermally accessible electronically excited states
  (3) Hindered rotations indicated by low frequency modes are not
      treated as such but are treated as vibrations and this may
      cause some error
  (4) All equations used are the standard statistical mechanics
      equations for an ideal gas
  (5) All vibrations are strictly harmonic

freq.      18.20  E(vib)   ...       0.57
freq.      45.14  E(vib)   ...       0.53
freq.      56.20  E(vib)   ...       0.52
freq.      71.83  E(vib)   ...       0.50
freq.      74.60  E(vib)   ...       0.49
freq.      86.09  E(vib)   ...       0.48
freq.      86.76  E(vib)   ...       0.48
freq.      89.66  E(vib)   ...       0.47
freq.      99.92  E(vib)   ...       0.46
freq.     103.88  E(vib)   ...       0.46
freq.     115.06  E(vib)   ...       0.44
freq.     125.84  E(vib)   ...       0.43
freq.     132.85  E(vib)   ...       0.42
freq.     147.71  E(vib)   ...       0.41
freq.     151.03  E(vib)   ...       0.40
freq.     167.27  E(vib)   ...       0.39
freq.     195.53  E(vib)   ...       0.36
freq.     198.12  E(vib)   ...       0.35
freq.     205.75  E(vib)   ...       0.35
freq.     225.80  E(vib)   ...       0.33
freq.     236.94  E(vib)   ...       0.32
freq.     246.16  E(vib)   ...       0.31
freq.     265.68  E(vib)   ...       0.29
freq.     282.74  E(vib)   ...       0.28
freq.     292.38  E(vib)   ...       0.27
freq.     302.78  E(vib)   ...       0.26
freq.     323.97  E(vib)   ...       0.25
freq.     342.49  E(vib)   ...       0.23
freq.     347.79  E(vib)   ...       0.23
freq.     375.97  E(vib)   ...       0.21
freq.     418.60  E(vib)   ...       0.18
freq.     452.59  E(vib)   ...       0.16
freq.     471.60  E(vib)   ...       0.15
freq.     482.70  E(vib)   ...       0.15
freq.     508.70  E(vib)   ...       0.14
freq.     549.72  E(vib)   ...       0.12
freq.     568.50  E(vib)   ...       0.11
freq.     584.93  E(vib)   ...       0.11
freq.     588.04  E(vib)   ...       0.10
freq.     605.99  E(vib)   ...       0.10
freq.     623.48  E(vib)   ...       0.09
freq.     648.66  E(vib)   ...       0.08
freq.     661.93  E(vib)   ...       0.08
freq.     676.74  E(vib)   ...       0.08
freq.     699.75  E(vib)   ...       0.07
freq.     712.23  E(vib)   ...       0.07
freq.     758.53  E(vib)   ...       0.06
freq.     764.76  E(vib)   ...       0.06
freq.     773.92  E(vib)   ...       0.05
freq.     798.72  E(vib)   ...       0.05
freq.     803.76  E(vib)   ...       0.05
freq.     821.71  E(vib)   ...       0.05
freq.     832.78  E(vib)   ...       0.04
freq.     847.54  E(vib)   ...       0.04
freq.     870.70  E(vib)   ...       0.04
freq.     874.91  E(vib)   ...       0.04
freq.     894.86  E(vib)   ...       0.03
freq.     923.09  E(vib)   ...       0.03
freq.     944.69  E(vib)   ...       0.03
freq.     948.01  E(vib)   ...       0.03
freq.     957.63  E(vib)   ...       0.03
freq.     972.54  E(vib)   ...       0.03
freq.     989.04  E(vib)   ...       0.02
freq.    1001.04  E(vib)   ...       0.02
freq.    1009.88  E(vib)   ...       0.02
freq.    1012.31  E(vib)   ...       0.02
freq.    1025.01  E(vib)   ...       0.02
freq.    1042.11  E(vib)   ...       0.02
freq.    1055.52  E(vib)   ...       0.02
freq.    1070.06  E(vib)   ...       0.02
freq.    1083.17  E(vib)   ...       0.02
freq.    1088.12  E(vib)   ...       0.02
freq.    1146.07  E(vib)   ...       0.01
freq.    1154.56  E(vib)   ...       0.01
freq.    1155.78  E(vib)   ...       0.01
freq.    1170.58  E(vib)   ...       0.01
freq.    1170.86  E(vib)   ...       0.01
freq.    1173.05  E(vib)   ...       0.01
freq.    1173.64  E(vib)   ...       0.01
freq.    1194.15  E(vib)   ...       0.01
freq.    1205.56  E(vib)   ...       0.01
freq.    1205.90  E(vib)   ...       0.01
freq.    1215.26  E(vib)   ...       0.01
freq.    1226.61  E(vib)   ...       0.01
freq.    1242.66  E(vib)   ...       0.01
freq.    1251.62  E(vib)   ...       0.01
freq.    1257.34  E(vib)   ...       0.01
freq.    1271.99  E(vib)   ...       0.01
freq.    1305.71  E(vib)   ...       0.01
freq.    1309.12  E(vib)   ...       0.01
freq.    1319.28  E(vib)   ...       0.01
freq.    1326.78  E(vib)   ...       0.01
freq.    1350.98  E(vib)   ...       0.01
freq.    1368.23  E(vib)   ...       0.01
freq.    1376.01  E(vib)   ...       0.01
freq.    1393.12  E(vib)   ...       0.00
freq.    1405.24  E(vib)   ...       0.00
freq.    1424.03  E(vib)   ...       0.00
freq.    1442.56  E(vib)   ...       0.00
freq.    1464.65  E(vib)   ...       0.00
freq.    1465.62  E(vib)   ...       0.00
freq.    1465.98  E(vib)   ...       0.00
freq.    1468.61  E(vib)   ...       0.00
freq.    1469.93  E(vib)   ...       0.00
freq.    1471.20  E(vib)   ...       0.00
freq.    1471.68  E(vib)   ...       0.00
freq.    1475.04  E(vib)   ...       0.00
freq.    1483.80  E(vib)   ...       0.00
freq.    1500.48  E(vib)   ...       0.00
freq.    1504.17  E(vib)   ...       0.00
freq.    1542.60  E(vib)   ...       0.00
freq.    1617.65  E(vib)   ...       0.00
freq.    1639.09  E(vib)   ...       0.00
freq.    1654.73  E(vib)   ...       0.00
freq.    1666.53  E(vib)   ...       0.00
freq.    1706.09  E(vib)   ...       0.00
freq.    1794.85  E(vib)   ...       0.00
freq.    1802.36  E(vib)   ...       0.00
freq.    3035.97  E(vib)   ...       0.00
freq.    3044.29  E(vib)   ...       0.00
freq.    3074.06  E(vib)   ...       0.00
freq.    3074.67  E(vib)   ...       0.00
freq.    3109.22  E(vib)   ...       0.00
freq.    3118.40  E(vib)   ...       0.00
freq.    3135.50  E(vib)   ...       0.00
freq.    3157.59  E(vib)   ...       0.00
freq.    3159.89  E(vib)   ...       0.00
freq.    3171.29  E(vib)   ...       0.00
freq.    3186.85  E(vib)   ...       0.00
freq.    3188.72  E(vib)   ...       0.00
freq.    3190.41  E(vib)   ...       0.00
freq.    3195.54  E(vib)   ...       0.00
freq.    3196.77  E(vib)   ...       0.00
freq.    3214.31  E(vib)   ...       0.00
freq.    3214.38  E(vib)   ...       0.00
freq.    3225.66  E(vib)   ...       0.00
freq.    3228.96  E(vib)   ...       0.00
freq.    3246.80  E(vib)   ...       0.00

------------
INNER ENERGY
------------

The inner energy is: U= E(el) + E(ZPE) + E(vib) + E(rot) + E(trans)

Rotational constants in cm-1:     0.009178     0.006484     0.005109

                             ****ORCA TERMINATED NORMALLY****
TOTAL RUN TIME: 0 days 2 hours 10 minutes 19 seconds 751 msec
