                         Program Version 5.0.4 -  RELEASE  -
|  1> %pal nprocs 24 end
|  2> ! PBE0 D3BJ def2-TZVP TightSCF OPT FREQ TightOpt
|  3> ! CPCM(dmso)
|  4> %scf
|  5> MaxIter 800
|  6> end
|  7>
|  8> %geom
|  9> MaxIter 800
| 10> MaxStep 0.15
| 11> end
| 12>
| 13> *xyz 0 1
| 14> C       4.10239200      0.33211400      1.21835200
| 15> C       3.99577300      1.54981100      0.44152900
| 16> C       2.81324900      1.80924300     -0.16938800
| 17> N       1.70483800      1.03752000      0.02785400
| 18> C       1.66550900     -0.06367900      0.98260500
| 19> C       3.03506500     -0.45618100      1.45133200
| 20> C       0.62375300      0.98710900     -0.92661100
| 21> C      -0.21148000      2.25367500     -0.97453500
| 22> O      -0.00152700      3.25553700     -0.33770700
| 23> O      -1.18381400      2.12309000     -1.86686800
| 24> C      -2.07411800      3.22452100     -2.00955400
| 25> H       5.08231600      0.03234200      1.60134600
| 26> H       2.67795100      2.64299100     -0.86300200
| 27> H       1.02850200      0.20244800      1.85205700
| 28> H       3.12422500     -1.39183300      2.00724900
| 29> H       1.02347900      0.86684300     -1.94687300
| 30> H      -2.58526200      3.42745300     -1.05733400
| 31> H      -2.80147900      2.93296000     -2.77479100
| 32> C       0.83439200     -1.15007900      0.24377700
| 33> C      -0.17095300     -0.29501200     -0.57756500
| 34> C      -1.44287400     -0.07924300      0.20636700
| 35> C      -1.54705600      0.85233800      1.24006500
| 36> C      -2.72909500      1.00784300      1.96556500
| 37> C      -3.82927200      0.21552100      1.65210900
| 38> C      -3.75317600     -0.72789800      0.62688300
| 39> C      -2.56362600     -0.88302700     -0.09257700
| 40> O      -2.40138200     -1.78739100     -1.07970400
| 41> C      -3.48425300     -2.61235500     -1.44288400
| 42> N       1.78812600     -1.84876000     -0.70802500
| 43> O       2.04828500     -1.30659100     -1.75897000
| 44> H      -0.42551700     -0.82907300     -1.49882200
| 45> H      -0.69055800      1.48383300      1.48491000
| 46> H      -2.78441900      1.74592000      2.76841400
| 47> H      -4.76397400      0.32453300      2.20784000
| 48> H      -4.62279000     -1.34323900      0.39549400
| 49> H      -3.12875200     -3.24811300     -2.26275400
| 50> H      -4.34476800     -2.01819800     -1.79210900
| 51> H      -3.80399900     -3.25049000     -0.60253600
| 52> O       2.29687800     -2.87874400     -0.32748900
| 53> H      -1.52838200      4.12470000     -2.32549400
| 54> H       4.85376800      2.20272900      0.28514800
| 55> C       0.19545200     -2.20495400      1.09436900
| 56> H      -0.34796600     -2.96733600      0.52627500
| 57> C       0.20923400     -2.25860900      2.42511700
| 58> H       0.72637300     -1.52291700      3.04660800
| 59> H      -0.31803000     -3.06069400      2.94802200
| 60> *
| 61>
| 62>                          ****END OF INPUT****
 Total Charge           Charge          ....    0
 Multiplicity           Mult            ....    1
 Number of Electrons    NEL             ....  188
Dispersion correction           -0.061730385
FINAL SINGLE POINT ENERGY     -1220.679320082987
Dispersion correction            ... done
Dispersion correction           -0.061828918
FINAL SINGLE POINT ENERGY     -1220.681012940198
Dispersion correction            ... done
Dispersion correction           -0.061983499
FINAL SINGLE POINT ENERGY     -1220.680444184908
Dispersion correction            ... done
FINAL SINGLE POINT ENERGY     -1220.681100792103
FINAL SINGLE POINT ENERGY     -1220.680966650234
FINAL SINGLE POINT ENERGY     -1220.681140372082
FINAL SINGLE POINT ENERGY     -1220.681144515167
FINAL SINGLE POINT ENERGY     -1220.681143949164
FINAL SINGLE POINT ENERGY     -1220.681143069930
Dispersion correction           -0.061800069
FINAL SINGLE POINT ENERGY     -1220.681144339192
Dispersion correction            ... done
Dispersion correction           -0.061801695
FINAL SINGLE POINT ENERGY     -1220.681144978692
Dispersion correction            ... done
                    ***********************HURRAY********************

CARTESIAN COORDINATES (ANGSTROEM)
---------------------------------
  C      4.117022    0.329378    1.171016
  C      4.011631    1.520715    0.363963
  C      2.826675    1.780370   -0.223749
  N      1.714232    1.036331    0.018290
  C      1.682301   -0.048826    0.986064
  C      3.052384   -0.435769    1.443073
  C      0.612438    0.987619   -0.907758
  C     -0.225345    2.252751   -0.932614
  O     -0.022901    3.239123   -0.272363
  O     -1.184064    2.140103   -1.841357
  C     -2.066104    3.258876   -1.971959
  H      5.092047    0.031886    1.542531
  H      2.691223    2.588620   -0.933113
  H      1.061084    0.231791    1.850917
  H      3.142016   -1.348205    2.019724
  H      0.990139    0.877930   -1.929144
  H     -2.574700    3.446877   -1.025938
  H     -2.782743    2.980638   -2.739978
  C      0.832136   -1.141954    0.280282
  C     -0.171872   -0.298791   -0.552653
  C     -1.456503   -0.097887    0.208153
  C     -1.579916    0.811279    1.249123
  C     -2.767026    0.953839    1.954289
  C     -3.855390    0.169183    1.612888
  C     -3.762267   -0.750760    0.577352
  C     -2.567813   -0.890049   -0.122060
  O     -2.394700   -1.774857   -1.128007
  C     -3.487917   -2.592897   -1.499489
  N      1.765749   -1.877143   -0.662727
  O      2.040861   -1.350373   -1.718954
  H     -0.403020   -0.832626   -1.470577
  H     -0.733898    1.430439    1.522456
  H     -2.835038    1.672367    2.761993
  H     -4.791264    0.266453    2.151369
  H     -4.620411   -1.357587    0.322401
  H     -3.132446   -3.213957   -2.318998
  H     -4.335206   -1.990339   -1.838612
  H     -3.803607   -3.230055   -0.668599
  O      2.245904   -2.920169   -0.277053
  H     -1.509626    4.146580   -2.272569
  H      4.868025    2.150132    0.171064
  C      0.192587   -2.160792    1.166843
  H     -0.384531   -2.913458    0.637017
  C      0.256489   -2.192641    2.488359
  H      0.811824   -1.468849    3.073232
  H     -0.267419   -2.964638    3.039570

 Multiplicity           Mult            ....    1
 Number of Electrons    NEL             ....  188
 Basis Dimension        Dim             ....  926

ORBITAL ENERGIES
----------------

  NO   OCC          E(Eh)            E(eV)
   0   2.0000     -19.264790      -524.2216
   1   2.0000     -19.252760      -523.8942
   2   2.0000     -19.252597      -523.8898
   3   2.0000     -19.247019      -523.7380
   4   2.0000     -19.206187      -522.6269
   5   2.0000     -14.624839      -397.9621
   6   2.0000     -14.421883      -392.4394
   7   2.0000     -10.360379      -281.9202
   8   2.0000     -10.309171      -280.5268
   9   2.0000     -10.292703      -280.0787
  10   2.0000     -10.289161      -279.9823
  11   2.0000     -10.284893      -279.8662
  12   2.0000     -10.271070      -279.4900
  13   2.0000     -10.267270      -279.3866
  14   2.0000     -10.263981      -279.2971
  15   2.0000     -10.262991      -279.2702
  16   2.0000     -10.242934      -278.7244
  17   2.0000     -10.242657      -278.7169
  18   2.0000     -10.231840      -278.4225
  19   2.0000     -10.230774      -278.3935
  20   2.0000     -10.229662      -278.3632
  21   2.0000     -10.227859      -278.3142
  22   2.0000     -10.227084      -278.2931
  23   2.0000     -10.223730      -278.2018
  24   2.0000     -10.223042      -278.1831
  25   2.0000     -10.207344      -277.7559
  26   2.0000      -1.284941       -34.9650
  27   2.0000      -1.155296       -31.4372
  28   2.0000      -1.109824       -30.1999
  29   2.0000      -1.105899       -30.0930
  30   2.0000      -1.063845       -28.9487
  31   2.0000      -1.017295       -27.6820
  32   2.0000      -0.908960       -24.7341
  33   2.0000      -0.885139       -24.0859
  34   2.0000      -0.856894       -23.3173
  35   2.0000      -0.813084       -22.1251
  36   2.0000      -0.798898       -21.7391
  37   2.0000      -0.787361       -21.4252
  38   2.0000      -0.778754       -21.1910
  39   2.0000      -0.777889       -21.1674
  40   2.0000      -0.746338       -20.3089
  41   2.0000      -0.722390       -19.6572
  42   2.0000      -0.706455       -19.2236
  43   2.0000      -0.670168       -18.2362
  44   2.0000      -0.649911       -17.6850
  45   2.0000      -0.643802       -17.5187
  46   2.0000      -0.619996       -16.8709
  47   2.0000      -0.618644       -16.8342
  48   2.0000      -0.601837       -16.3768
  49   2.0000      -0.591984       -16.1087
  50   2.0000      -0.576945       -15.6995
  51   2.0000      -0.565090       -15.3769
  52   2.0000      -0.560303       -15.2466
  53   2.0000      -0.550949       -14.9921
  54   2.0000      -0.545066       -14.8320
  55   2.0000      -0.532448       -14.4886
  56   2.0000      -0.518322       -14.1043
  57   2.0000      -0.513484       -13.9726
  58   2.0000      -0.507839       -13.8190
  59   2.0000      -0.504339       -13.7238
  60   2.0000      -0.496014       -13.4972
  61   2.0000      -0.490858       -13.3569
  62   2.0000      -0.485115       -13.2007
  63   2.0000      -0.476902       -12.9772
  64   2.0000      -0.470764       -12.8101
  65   2.0000      -0.462022       -12.5723
  66   2.0000      -0.458037       -12.4638
  67   2.0000      -0.445463       -12.1217
  68   2.0000      -0.438735       -11.9386
  69   2.0000      -0.434509       -11.8236
  70   2.0000      -0.430961       -11.7270
  71   2.0000      -0.424833       -11.5603
  72   2.0000      -0.409822       -11.1518
  73   2.0000      -0.405860       -11.0440
  74   2.0000      -0.400986       -10.9114
  75   2.0000      -0.388749       -10.5784
  76   2.0000      -0.384282       -10.4569
  77   2.0000      -0.379813       -10.3352
  78   2.0000      -0.372843       -10.1456
  79   2.0000      -0.365912        -9.9570
  80   2.0000      -0.359463        -9.7815
  81   2.0000      -0.352775        -9.5995
  82   2.0000      -0.345878        -9.4118
  83   2.0000      -0.344513        -9.3747
  84   2.0000      -0.341776        -9.3002
  85   2.0000      -0.333465        -9.0740
  86   2.0000      -0.333055        -9.0629
  87   2.0000      -0.327914        -8.9230
  88   2.0000      -0.311356        -8.4724
  89   2.0000      -0.297232        -8.0881
  90   2.0000      -0.293397        -7.9837
  91   2.0000      -0.270239        -7.3536
  92   2.0000      -0.241447        -6.5701
  93   2.0000      -0.199193        -5.4203
  94   0.0000      -0.072804        -1.9811
  95   0.0000      -0.028098        -0.7646
  96   0.0000      -0.024636        -0.6704
  97   0.0000      -0.006001        -0.1633
  98   0.0000      -0.002438        -0.0663

MULLIKEN ATOMIC CHARGES
-----------------------
   0 C :   -0.141903
   1 C :   -0.241727
   2 C :   -0.142795
   3 N :   -0.006668
   4 C :   -0.036204
   5 C :   -0.313507
   6 C :   -0.025201
   7 C :    0.287288
   8 O :   -0.371631
   9 O :   -0.222386
  10 C :   -0.263195
  11 H :    0.150880
  12 H :    0.168385
  13 H :    0.140869
  14 H :    0.167451
  15 H :    0.147275
  16 H :    0.155441
  17 H :    0.163309
  18 C :    0.178399
  19 C :    0.195760
  20 C :   -0.129444
  21 C :   -0.096788
  22 C :   -0.253692
  23 C :   -0.137440
  24 C :   -0.307212
  25 C :    0.195402
  26 O :   -0.261680
  27 C :   -0.283624
  28 N :    0.465243
  29 O :   -0.344317
  30 H :    0.146630
  31 H :    0.168260
  32 H :    0.145878
  33 H :    0.152113
  34 H :    0.164478
  35 H :    0.162845
  36 H :    0.152650
  37 H :    0.152019
  38 O :   -0.330472
  39 H :    0.156354
  40 H :    0.154875
  41 C :   -0.272682
  42 H :    0.152199
  43 C :   -0.276638
  44 H :    0.169183
  45 H :    0.166019
Sum of atomic charges:   -0.0000000

LOEWDIN ATOMIC CHARGES
----------------------
   0 C :   -0.163510
   1 C :   -0.226012
   2 C :   -0.185058
   3 N :    0.254334
   4 C :   -0.184231
   5 C :   -0.160482
   6 C :   -0.194406
   7 C :   -0.483623
   8 O :    0.092559
   9 O :    0.275199
  10 C :   -0.301640
  11 H :    0.155721
  12 H :    0.159922
  13 H :    0.169546
  14 H :    0.154114
  15 H :    0.180381
  16 H :    0.119593
  17 H :    0.122873
  18 C :   -0.189429
  19 C :   -0.115534
  20 C :   -0.108059
  21 C :   -0.108976
  22 C :   -0.162934
  23 C :   -0.142825
  24 C :   -0.138007
  25 C :   -0.230911
  26 O :    0.248342
  27 C :   -0.325174
  28 N :   -0.026766
  29 O :   -0.012816
  30 H :    0.182499
  31 H :    0.162579
  32 H :    0.153056
  33 H :    0.155009
  34 H :    0.160816
  35 H :    0.122011
  36 H :    0.117777
  37 H :    0.117767
  38 O :   -0.016101
  39 H :    0.119849
  40 H :    0.149486
  41 C :   -0.159230
  42 H :    0.162268
  43 C :   -0.171634
  44 H :    0.135530
  45 H :    0.136127

  Mayer bond orders larger than 0.100000
B(  0-C ,  1-C ) :   1.0898 B(  0-C ,  5-C ) :   1.8838 B(  0-C , 11-H ) :   0.9576
B(  1-C ,  2-C ) :   1.6758 B(  1-C , 40-H ) :   0.9707 B(  2-C ,  3-N ) :   1.1926
B(  2-C , 12-H ) :   0.9485 B(  3-N ,  4-C ) :   0.9638 B(  3-N ,  6-C ) :   1.0306
B(  4-C ,  5-C ) :   0.9206 B(  4-C , 13-H ) :   0.9310 B(  4-C , 18-C ) :   0.9236
B(  5-C , 14-H ) :   0.9463 B(  6-C ,  7-C ) :   0.9212 B(  6-C , 15-H ) :   0.9213
B(  6-C , 19-C ) :   0.9827 B(  7-C ,  8-O ) :   2.0141 B(  7-C ,  9-O ) :   1.2714
B(  9-O , 10-C ) :   0.8877 B( 10-C , 16-H ) :   0.9666 B( 10-C , 17-H ) :   0.9639
B( 10-C , 39-H ) :   0.9662 B( 18-C , 19-C ) :   0.9616 B( 18-C , 20-C ) :   0.1100
B( 18-C , 28-N ) :   0.8763 B( 18-C , 41-C ) :   0.9169 B( 19-C , 20-C ) :   0.8295
B( 19-C , 30-H ) :   0.8982 B( 20-C , 21-C ) :   1.3399 B( 20-C , 25-C ) :   1.3474
B( 21-C , 22-C ) :   1.4161 B( 21-C , 31-H ) :   0.9479 B( 22-C , 23-C ) :   1.4047
B( 22-C , 32-H ) :   0.9849 B( 23-C , 24-C ) :   1.3880 B( 23-C , 33-H ) :   0.9697
B( 24-C , 25-C ) :   1.3860 B( 24-C , 34-H ) :   0.9629 B( 25-C , 26-O ) :   1.1165
B( 26-O , 27-C ) :   0.9384 B( 27-C , 35-H ) :   0.9645 B( 27-C , 36-H ) :   0.9613
B( 27-C , 37-H ) :   0.9628 B( 28-N , 29-O ) :   1.5859 B( 28-N , 38-O ) :   1.6353
B( 29-O , 38-O ) :   0.1956 B( 41-C , 42-H ) :   0.9535 B( 41-C , 43-C ) :   1.9486
B( 43-C , 44-H ) :   0.9403 B( 43-C , 45-H ) :   0.9501

Dispersion correction           -0.061802021
FINAL SINGLE POINT ENERGY     -1220.681145330030

DIPOLE MOMENT
-------------
                                X             Y             Z
Electronic contribution:      9.30809      -0.79273      -3.67054
Nuclear contribution   :    -12.32218       0.69464       3.64305
                        -----------------------------------------
Total Dipole Moment    :     -3.01409      -0.09808      -0.02749
                        -----------------------------------------
Magnitude (a.u.)       :      3.01581
Magnitude (Debye)      :      7.66558

Dispersion correction in the Hessian             ... done   (      0.7 sec)

VIBRATIONAL FREQUENCIES
-----------------------

Scaling factor for frequencies =  1.000000000  (already applied!)

   0:         0.00 cm**-1
   1:         0.00 cm**-1
   2:         0.00 cm**-1
   3:         0.00 cm**-1
   4:         0.00 cm**-1
   5:         0.00 cm**-1
   6:        23.05 cm**-1
   7:        29.02 cm**-1
   8:        51.40 cm**-1
   9:        55.39 cm**-1
  10:        59.22 cm**-1
  11:        69.08 cm**-1
  12:        85.98 cm**-1
  13:        88.24 cm**-1
  14:       101.25 cm**-1
  15:       109.62 cm**-1
  16:       126.04 cm**-1
  17:       147.25 cm**-1
  18:       152.10 cm**-1
  19:       165.50 cm**-1
  20:       180.72 cm**-1
  21:       187.27 cm**-1
  22:       199.40 cm**-1
  23:       219.08 cm**-1
  24:       256.87 cm**-1
  25:       263.39 cm**-1
  26:       268.29 cm**-1
  27:       284.81 cm**-1
  28:       307.01 cm**-1
  29:       324.72 cm**-1
  30:       343.90 cm**-1
  31:       372.65 cm**-1
  32:       397.39 cm**-1
  33:       429.61 cm**-1
  34:       452.23 cm**-1
  35:       484.34 cm**-1
  36:       489.64 cm**-1
  37:       518.21 cm**-1
  38:       539.30 cm**-1
  39:       558.41 cm**-1
  40:       592.77 cm**-1
  41:       596.33 cm**-1
  42:       600.70 cm**-1
  43:       615.82 cm**-1
  44:       628.34 cm**-1
  45:       641.45 cm**-1
  46:       704.00 cm**-1
  47:       712.08 cm**-1
  48:       739.01 cm**-1
  49:       750.85 cm**-1
  50:       761.37 cm**-1
  51:       775.56 cm**-1
  52:       786.64 cm**-1
  53:       805.75 cm**-1
  54:       827.59 cm**-1
  55:       838.06 cm**-1
  56:       863.59 cm**-1
  57:       877.34 cm**-1
  58:       884.93 cm**-1
  59:       940.15 cm**-1
  60:       945.29 cm**-1
  61:       959.39 cm**-1
  62:       969.88 cm**-1
  63:       976.46 cm**-1
  64:       991.42 cm**-1
  65:       995.59 cm**-1
  66:      1001.89 cm**-1
  67:      1011.04 cm**-1
  68:      1034.17 cm**-1
  69:      1039.87 cm**-1
  70:      1040.46 cm**-1
  71:      1055.98 cm**-1
  72:      1066.99 cm**-1
  73:      1075.93 cm**-1
  74:      1091.43 cm**-1
  75:      1138.05 cm**-1
  76:      1143.32 cm**-1
  77:      1153.37 cm**-1
  78:      1170.67 cm**-1
  79:      1171.85 cm**-1
  80:      1177.56 cm**-1
  81:      1196.34 cm**-1
  82:      1198.01 cm**-1
  83:      1205.94 cm**-1
  84:      1207.70 cm**-1
  85:      1220.85 cm**-1
  86:      1250.15 cm**-1
  87:      1262.09 cm**-1
  88:      1276.69 cm**-1
  89:      1294.76 cm**-1
  90:      1302.28 cm**-1
  91:      1312.75 cm**-1
  92:      1331.92 cm**-1
  93:      1335.88 cm**-1
  94:      1340.07 cm**-1
  95:      1346.21 cm**-1
  96:      1377.58 cm**-1
  97:      1386.38 cm**-1
  98:      1389.14 cm**-1
  99:      1425.23 cm**-1
 100:      1440.59 cm**-1
 101:      1454.69 cm**-1
 102:      1465.06 cm**-1
 103:      1466.93 cm**-1
 104:      1467.54 cm**-1
 105:      1473.47 cm**-1
 106:      1473.99 cm**-1
 107:      1483.90 cm**-1
 108:      1489.83 cm**-1
 109:      1498.99 cm**-1
 110:      1540.49 cm**-1
 111:      1625.80 cm**-1
 112:      1636.82 cm**-1
 113:      1648.57 cm**-1
 114:      1666.02 cm**-1
 115:      1708.07 cm**-1
 116:      1727.42 cm**-1
 117:      1797.02 cm**-1
 118:      2964.15 cm**-1
 119:      3037.76 cm**-1
 120:      3065.98 cm**-1
 121:      3071.61 cm**-1
 122:      3109.08 cm**-1
 123:      3154.78 cm**-1
 124:      3159.75 cm**-1
 125:      3164.18 cm**-1
 126:      3166.14 cm**-1
 127:      3178.03 cm**-1
 128:      3187.22 cm**-1
 129:      3190.59 cm**-1
 130:      3194.47 cm**-1
 131:      3203.36 cm**-1
 132:      3207.00 cm**-1
 133:      3214.83 cm**-1
 134:      3217.19 cm**-1
 135:      3233.11 cm**-1
 136:      3244.01 cm**-1
 137:      3251.69 cm**-1

IR SPECTRUM
-----------

 Mode   freq       eps      Int      T**2         TX        TY        TZ
       cm**-1   L/(mol*cm) km/mol    a.u.
----------------------------------------------------------------------------
  6:     23.05   0.000149    0.75  0.002012  ( 0.012810 -0.041997  0.009150)
  7:     29.02   0.000072    0.36  0.000773  ( 0.002895 -0.019196  0.019895)
  8:     51.40   0.000231    1.17  0.001403  ( 0.029623  0.022150 -0.005908)
  9:     55.39   0.000263    1.33  0.001479  ( 0.031349  0.007287 -0.021053)
 10:     59.22   0.000348    1.76  0.001832  (-0.012182  0.040844 -0.003878)
 11:     69.08   0.000495    2.50  0.002238  (-0.040730  0.017019  0.017010)
 12:     85.98   0.000262    1.32  0.000951  (-0.024594  0.013035 -0.013267)
 13:     88.24   0.000717    3.62  0.002535  ( 0.025867 -0.039759  0.016880)
 14:    101.25   0.000556    2.81  0.001714  (-0.013794  0.030032 -0.024927)
 15:    109.62   0.000465    2.35  0.001324  (-0.004213  0.029257 -0.021231)
 16:    126.04   0.000148    0.75  0.000366  (-0.007918  0.000394 -0.017414)
 17:    147.25   0.000935    4.72  0.001981  ( 0.020073  0.028050 -0.028137)
 18:    152.10   0.000167    0.84  0.000343  ( 0.000202  0.012586 -0.013573)
 19:    165.50   0.000679    3.43  0.001281  ( 0.031100  0.016476 -0.006483)
 20:    180.72   0.000260    1.31  0.000448  (-0.018747 -0.009268 -0.003297)
 21:    187.27   0.000196    0.99  0.000327  ( 0.013698 -0.011462 -0.002829)
 22:    199.40   0.002865   14.48  0.004483  (-0.031264  0.028435 -0.051937)
 23:    219.08   0.000235    1.19  0.000334  (-0.013004  0.007527 -0.010419)
 24:    256.87   0.000142    0.72  0.000173  (-0.007278  0.010176  0.004044)
 25:    263.39   0.002519   12.73  0.002984  ( 0.049165  0.000769  0.023804)
 26:    268.29   0.000800    4.04  0.000930  ( 0.017332  0.010427  0.022826)
 27:    284.81   0.001187    6.00  0.001301  (-0.024450 -0.011919  0.023690)
 28:    307.01   0.001842    9.31  0.001872  (-0.037049  0.015175  0.016402)
 29:    324.72   0.000557    2.82  0.000535  (-0.009657  0.013104 -0.016446)
 30:    343.90   0.001302    6.58  0.001182  (-0.030855  0.014697  0.003712)
 31:    372.65   0.002347   11.86  0.001965  ( 0.014429  0.003205  0.041794)
 32:    397.39   0.005180   26.18  0.004068  ( 0.000412  0.053453  0.034794)
 33:    429.61   0.000879    4.44  0.000638  (-0.021663 -0.006837  0.011054)
 34:    452.23   0.003541   17.89  0.002443  (-0.006578  0.014323  0.046849)
 35:    484.34   0.002130   10.76  0.001372  (-0.024807  0.025927  0.009203)
 36:    489.64   0.000755    3.82  0.000481  (-0.012537 -0.017731  0.003151)
 37:    518.21   0.001033    5.22  0.000622  (-0.011552 -0.003212 -0.021864)
 38:    539.30   0.004647   23.49  0.002689  ( 0.017507  0.009804 -0.047817)
 39:    558.41   0.003548   17.93  0.001983  (-0.034638  0.016480  0.022620)
 40:    592.77   0.000391    1.98  0.000206  ( 0.004255  0.007192  0.011671)
 41:    596.33   0.001697    8.57  0.000888  (-0.014828 -0.020406  0.015862)
 42:    600.70   0.004901   24.77  0.002546  ( 0.018582  0.000395  0.046913)
 43:    615.82   0.001396    7.05  0.000707  ( 0.005546  0.023068  0.012019)
 44:    628.34   0.001757    8.88  0.000872  (-0.003007 -0.013438  0.026132)
 45:    641.45   0.001583    8.00  0.000770  (-0.016665  0.010853 -0.019351)
 46:    704.00   0.010654   53.84  0.004723  (-0.035551  0.049896 -0.031130)
 47:    712.08   0.021693  109.63  0.009507  ( 0.011252 -0.060370 -0.075734)
 48:    739.01   0.001294    6.54  0.000546  (-0.004254 -0.022301 -0.005560)
 49:    750.85   0.001241    6.27  0.000516  ( 0.001330  0.001185 -0.022643)
 50:    761.37   0.008874   44.85  0.003637  ( 0.023955 -0.043399  0.034350)
 51:    775.56   0.015839   80.04  0.006373  (-0.016928  0.050911 -0.059115)
 52:    786.64   0.003002   15.17  0.001191  ( 0.004272  0.001597  0.034209)
 53:    805.75   0.012386   62.59  0.004797  ( 0.022891 -0.051782 -0.039894)
 54:    827.59   0.002284   11.54  0.000861  (-0.019461  0.020940  0.006628)
 55:    838.06   0.000152    0.77  0.000056  ( 0.003216  0.000343 -0.006784)
 56:    863.59   0.006092   30.79  0.002201  ( 0.040039  0.024443 -0.000924)
 57:    877.34   0.001773    8.96  0.000631  ( 0.011183 -0.022234 -0.003334)
 58:    884.93   0.006978   35.26  0.002461  ( 0.015121 -0.038269 -0.027707)
 59:    940.15   0.001032    5.22  0.000343  (-0.017332  0.005966  0.002584)
 60:    945.29   0.004138   20.91  0.001366  ( 0.009538 -0.009853  0.034321)
 61:    959.39   0.003280   16.58  0.001067  (-0.021131  0.011260 -0.022218)
 62:    969.88   0.000171    0.87  0.000055  (-0.000320 -0.004714  0.005723)
 63:    976.46   0.012418   62.76  0.003969  ( 0.057146 -0.026197 -0.004084)
 64:    991.42   0.000852    4.31  0.000268  ( 0.006202  0.013365  0.007145)
 65:    995.59   0.000173    0.88  0.000054  (-0.000367  0.006799 -0.002816)
 66:   1001.89   0.008443   42.67  0.002630  ( 0.002034 -0.051189 -0.002335)
 67:   1011.04   0.001510    7.63  0.000466  ( 0.019789  0.002610 -0.008225)
 68:   1034.17   0.000788    3.98  0.000238  ( 0.015345 -0.001087 -0.001113)
 69:   1039.87   0.006630   33.51  0.001990  (-0.029097  0.033802  0.000679)
 70:   1040.46   0.009371   47.36  0.002811  ( 0.028767 -0.040313  0.018917)
 71:   1055.98   0.004168   21.06  0.001232  ( 0.019753 -0.028905  0.002435)
 72:   1066.99   0.003478   17.58  0.001017  (-0.000080  0.026585  0.017620)
 73:   1075.93   0.009633   48.68  0.002794  ( 0.049304  0.019027 -0.001089)
 74:   1091.43   0.006181   31.24  0.001767  (-0.018927 -0.022663 -0.029924)
 75:   1138.05   0.014329   72.41  0.003929  (-0.010018  0.061414 -0.007553)
 76:   1143.32   0.010884   55.00  0.002971  ( 0.038632  0.024442  0.029681)
 77:   1153.37   0.005037   25.45  0.001363  (-0.020268  0.018176 -0.024932)
 78:   1170.67   0.000250    1.26  0.000067  ( 0.001719  0.004009 -0.006903)
 79:   1171.85   0.000201    1.01  0.000053  ( 0.003201 -0.004206  0.005055)
 80:   1177.56   0.001268    6.41  0.000336  ( 0.015815  0.008156  0.004406)
 81:   1196.34   0.003730   18.85  0.000973  (-0.007926  0.026921 -0.013613)
 82:   1198.01   0.001421    7.18  0.000370  ( 0.012995 -0.001657  0.014091)
 83:   1205.94   0.014314   72.34  0.003704  ( 0.050106 -0.018397  0.029241)
 84:   1207.70   0.000116    0.58  0.000030  ( 0.003591  0.001221 -0.003932)
 85:   1220.85   0.003820   19.30  0.000976  (-0.029038  0.004051 -0.010806)
 86:   1250.15   0.084641  427.74  0.021128  (-0.126049  0.037098 -0.062157)
 87:   1262.09   0.032848  166.00  0.008122  (-0.055547  0.052067 -0.048224)
 88:   1276.69   0.008899   44.97  0.002175  (-0.022882  0.028522 -0.028951)
 89:   1294.76   0.007099   35.88  0.001711  ( 0.022963 -0.034393  0.000973)
 90:   1302.28   0.079760  403.07  0.019113  (-0.045391 -0.082734 -0.101033)
 91:   1312.75   0.015822   79.96  0.003761  ( 0.017419  0.046654  0.035791)
 92:   1331.92   0.002902   14.66  0.000680  (-0.024100  0.009859 -0.001358)
 93:   1335.88   0.002484   12.55  0.000580  (-0.006103 -0.002583  0.023157)
 94:   1340.07   0.005336   26.97  0.001243  ( 0.032245 -0.010922 -0.009145)
 95:   1346.21   0.033977  171.70  0.007876  ( 0.081680  0.002059  0.034645)
 96:   1377.58   0.005230   26.43  0.001185  ( 0.027160 -0.019284  0.008671)
 97:   1386.38   0.004539   22.94  0.001022  ( 0.011486  0.012624  0.027027)
 98:   1389.14   0.010347   52.29  0.002324  ( 0.033652  0.030595 -0.015995)
 99:   1425.23   0.012416   62.75  0.002719  ( 0.033351  0.036469  0.016623)
100:   1440.59   0.031027  156.80  0.006721  ( 0.056662 -0.050441 -0.031085)
101:   1454.69   0.019922  100.68  0.004274  ( 0.019419 -0.033509 -0.052667)
102:   1465.06   0.003510   17.74  0.000748  ( 0.012395  0.014084 -0.019890)
103:   1466.93   0.006804   34.39  0.001448  (-0.011351  0.028145  0.022947)
104:   1467.54   0.006709   33.90  0.001427  ( 0.025882 -0.019633  0.019267)
105:   1473.47   0.003598   18.18  0.000762  (-0.015576 -0.011039 -0.019940)
106:   1473.99   0.003096   15.65  0.000655  ( 0.006690 -0.013633  0.020612)
107:   1483.90   0.005465   27.62  0.001149  (-0.002885  0.022090  0.025555)
108:   1489.83   0.022879  115.62  0.004792  ( 0.061958  0.028444 -0.012016)
109:   1498.99   0.014424   72.89  0.003003  ( 0.004448  0.040483  0.036663)
110:   1540.49   0.036689  185.41  0.007432  ( 0.001432 -0.057991 -0.063776)
111:   1625.80   0.020623  104.22  0.003958  ( 0.059039  0.019739 -0.009121)
112:   1636.82   0.154244  779.49  0.029407  (-0.044114  0.121267 -0.112939)
113:   1648.57   0.005113   25.84  0.000968  ( 0.018491  0.015580  0.019574)
114:   1666.02   0.012885   65.12  0.002414  ( 0.002658 -0.027759 -0.040447)
115:   1708.07   0.026959  136.24  0.004925  ( 0.067853  0.016726  0.006447)
116:   1727.42   0.000712    3.60  0.000129  (-0.005823 -0.000556 -0.009717)
117:   1797.02   0.091160  460.68  0.015830  ( 0.047141  0.091360  0.072537)
118:   2964.15   0.014176   71.64  0.001492  ( 0.028212  0.008245 -0.025070)
119:   3037.76   0.012692   64.14  0.001304  ( 0.026267  0.021575  0.012183)
120:   3065.98   0.008322   42.06  0.000847  (-0.020018  0.011684 -0.017601)
121:   3071.61   0.004824   24.38  0.000490  ( 0.013464 -0.017214  0.003531)
122:   3109.08   0.007506   37.93  0.000753  ( 0.008273 -0.018914  0.018087)
123:   3154.78   0.003784   19.12  0.000374  (-0.011075 -0.007752  0.013841)
124:   3159.75   0.000462    2.33  0.000046  ( 0.006530  0.000889  0.001481)
125:   3164.18   0.000524    2.65  0.000052  (-0.002121 -0.001416 -0.006722)
126:   3166.14   0.003814   19.27  0.000376  ( 0.006847 -0.010661 -0.014676)
127:   3178.03   0.000282    1.42  0.000028  (-0.003464 -0.003938  0.000421)
128:   3187.22   0.003021   15.27  0.000296  ( 0.013910 -0.006302  0.007912)
129:   3190.59   0.002144   10.83  0.000210  ( 0.008595  0.005414  0.010321)
130:   3194.47   0.000137    0.69  0.000013  (-0.003154 -0.000682  0.001728)
131:   3203.36   0.002328   11.77  0.000227  ( 0.013597 -0.001339 -0.006337)
132:   3207.00   0.000215    1.09  0.000021  (-0.002595 -0.003609  0.001070)
133:   3214.83   0.000589    2.97  0.000057  (-0.004536  0.003768 -0.004730)
134:   3217.19   0.002155   10.89  0.000209  (-0.001156  0.009589  0.010760)
135:   3233.11   0.000394    1.99  0.000038  (-0.005154 -0.002998 -0.001573)
136:   3244.01   0.000932    4.71  0.000090  (-0.003552 -0.007890  0.003846)
137:   3251.69   0.000992    5.01  0.000095  (-0.005786 -0.007706  0.001519)

--------------------------
THERMOCHEMISTRY AT 298.15K
--------------------------

Temperature         ... 298.15 K
Pressure            ... 1.00 atm
Total Mass          ... 356.38 AMU

Throughout the following assumptions are being made:
  (1) The electronic state is orbitally nondegenerate
  (2) There are no thermally accessible electronically excited states
  (3) Hindered rotations indicated by low frequency modes are not
      treated as such but are treated as vibrations and this may
      cause some error
  (4) All equations used are the standard statistical mechanics
      equations for an ideal gas
  (5) All vibrations are strictly harmonic

freq.      23.05  E(vib)   ...       0.56
freq.      29.02  E(vib)   ...       0.55
freq.      51.40  E(vib)   ...       0.52
freq.      55.39  E(vib)   ...       0.52
freq.      59.22  E(vib)   ...       0.51
freq.      69.08  E(vib)   ...       0.50
freq.      85.98  E(vib)   ...       0.48
freq.      88.24  E(vib)   ...       0.48
freq.     101.25  E(vib)   ...       0.46
freq.     109.62  E(vib)   ...       0.45
freq.     126.04  E(vib)   ...       0.43
freq.     147.25  E(vib)   ...       0.41
freq.     152.10  E(vib)   ...       0.40
freq.     165.50  E(vib)   ...       0.39
freq.     180.72  E(vib)   ...       0.37
freq.     187.27  E(vib)   ...       0.36
freq.     199.40  E(vib)   ...       0.35
freq.     219.08  E(vib)   ...       0.33
freq.     256.87  E(vib)   ...       0.30
freq.     263.39  E(vib)   ...       0.29
freq.     268.29  E(vib)   ...       0.29
freq.     284.81  E(vib)   ...       0.28
freq.     307.01  E(vib)   ...       0.26
freq.     324.72  E(vib)   ...       0.24
freq.     343.90  E(vib)   ...       0.23
freq.     372.65  E(vib)   ...       0.21
freq.     397.39  E(vib)   ...       0.20
freq.     429.61  E(vib)   ...       0.18
freq.     452.23  E(vib)   ...       0.16
freq.     484.34  E(vib)   ...       0.15
freq.     489.64  E(vib)   ...       0.15
freq.     518.21  E(vib)   ...       0.13
freq.     539.30  E(vib)   ...       0.12
freq.     558.41  E(vib)   ...       0.12
freq.     592.77  E(vib)   ...       0.10
freq.     596.33  E(vib)   ...       0.10
freq.     600.70  E(vib)   ...       0.10
freq.     615.82  E(vib)   ...       0.10
freq.     628.34  E(vib)   ...       0.09
freq.     641.45  E(vib)   ...       0.09
freq.     704.00  E(vib)   ...       0.07
freq.     712.08  E(vib)   ...       0.07
freq.     739.01  E(vib)   ...       0.06
freq.     750.85  E(vib)   ...       0.06
freq.     761.37  E(vib)   ...       0.06
freq.     775.56  E(vib)   ...       0.05
freq.     786.64  E(vib)   ...       0.05
freq.     805.75  E(vib)   ...       0.05
freq.     827.59  E(vib)   ...       0.04
freq.     838.06  E(vib)   ...       0.04
freq.     863.59  E(vib)   ...       0.04
freq.     877.34  E(vib)   ...       0.04
freq.     884.93  E(vib)   ...       0.04
freq.     940.15  E(vib)   ...       0.03
freq.     945.29  E(vib)   ...       0.03
freq.     959.39  E(vib)   ...       0.03
freq.     969.88  E(vib)   ...       0.03
freq.     976.46  E(vib)   ...       0.03
freq.     991.42  E(vib)   ...       0.02
freq.     995.59  E(vib)   ...       0.02
freq.    1001.89  E(vib)   ...       0.02
freq.    1011.04  E(vib)   ...       0.02
freq.    1034.17  E(vib)   ...       0.02
freq.    1039.87  E(vib)   ...       0.02
freq.    1040.46  E(vib)   ...       0.02
freq.    1055.98  E(vib)   ...       0.02
freq.    1066.99  E(vib)   ...       0.02
freq.    1075.93  E(vib)   ...       0.02
freq.    1091.43  E(vib)   ...       0.02
freq.    1138.05  E(vib)   ...       0.01
freq.    1143.32  E(vib)   ...       0.01
freq.    1153.37  E(vib)   ...       0.01
freq.    1170.67  E(vib)   ...       0.01
freq.    1171.85  E(vib)   ...       0.01
freq.    1177.56  E(vib)   ...       0.01
freq.    1196.34  E(vib)   ...       0.01
freq.    1198.01  E(vib)   ...       0.01
freq.    1205.94  E(vib)   ...       0.01
freq.    1207.70  E(vib)   ...       0.01
freq.    1220.85  E(vib)   ...       0.01
freq.    1250.15  E(vib)   ...       0.01
freq.    1262.09  E(vib)   ...       0.01
freq.    1276.69  E(vib)   ...       0.01
freq.    1294.76  E(vib)   ...       0.01
freq.    1302.28  E(vib)   ...       0.01
freq.    1312.75  E(vib)   ...       0.01
freq.    1331.92  E(vib)   ...       0.01
freq.    1335.88  E(vib)   ...       0.01
freq.    1340.07  E(vib)   ...       0.01
freq.    1346.21  E(vib)   ...       0.01
freq.    1377.58  E(vib)   ...       0.01
freq.    1386.38  E(vib)   ...       0.00
freq.    1389.14  E(vib)   ...       0.00
freq.    1425.23  E(vib)   ...       0.00
freq.    1440.59  E(vib)   ...       0.00
freq.    1454.69  E(vib)   ...       0.00
freq.    1465.06  E(vib)   ...       0.00
freq.    1466.93  E(vib)   ...       0.00
freq.    1467.54  E(vib)   ...       0.00
freq.    1473.47  E(vib)   ...       0.00
freq.    1473.99  E(vib)   ...       0.00
freq.    1483.90  E(vib)   ...       0.00
freq.    1489.83  E(vib)   ...       0.00
freq.    1498.99  E(vib)   ...       0.00
freq.    1540.49  E(vib)   ...       0.00
freq.    1625.80  E(vib)   ...       0.00
freq.    1636.82  E(vib)   ...       0.00
freq.    1648.57  E(vib)   ...       0.00
freq.    1666.02  E(vib)   ...       0.00
freq.    1708.07  E(vib)   ...       0.00
freq.    1727.42  E(vib)   ...       0.00
freq.    1797.02  E(vib)   ...       0.00
freq.    2964.15  E(vib)   ...       0.00
freq.    3037.76  E(vib)   ...       0.00
freq.    3065.98  E(vib)   ...       0.00
freq.    3071.61  E(vib)   ...       0.00
freq.    3109.08  E(vib)   ...       0.00
freq.    3154.78  E(vib)   ...       0.00
freq.    3159.75  E(vib)   ...       0.00
freq.    3164.18  E(vib)   ...       0.00
freq.    3166.14  E(vib)   ...       0.00
freq.    3178.03  E(vib)   ...       0.00
freq.    3187.22  E(vib)   ...       0.00
freq.    3190.59  E(vib)   ...       0.00
freq.    3194.47  E(vib)   ...       0.00
freq.    3203.36  E(vib)   ...       0.00
freq.    3207.00  E(vib)   ...       0.00
freq.    3214.83  E(vib)   ...       0.00
freq.    3217.19  E(vib)   ...       0.00
freq.    3233.11  E(vib)   ...       0.00
freq.    3244.01  E(vib)   ...       0.00
freq.    3251.69  E(vib)   ...       0.00

------------
INNER ENERGY
------------

The inner energy is: U= E(el) + E(ZPE) + E(vib) + E(rot) + E(trans)
    E(el)   - is the total energy from the electronic structure calculation
              = E(kin-el) + E(nuc-el) + E(el-el) + E(nuc-nuc)
    E(ZPE)  - the the zero temperature vibrational energy from the frequency calculation
    E(vib)  - the the finite temperature correction to E(ZPE) due to population
              of excited vibrational states
    E(rot)  - is the rotational thermal energy

Rotational constants in cm-1:     0.010002     0.006801     0.005380

                             ****ORCA TERMINATED NORMALLY****
TOTAL RUN TIME: 0 days 1 hours 46 minutes 49 seconds 699 msec
