                         Program Version 5.0.4 -  RELEASE  -
|  1> %pal nprocs 24 end
|  2> ! PBE0 D3BJ def2-TZVP TightSCF OPT FREQ TightOpt
|  3> ! CPCM(dmso)
|  4> %scf
|  5> MaxIter 800
|  6> end
|  7>
|  8> %geom
|  9> MaxIter 800
| 10> MaxStep 0.15
| 11> end
| 12>
| 13> *xyz 0 1
| 14> C       3.89950900      0.90066700      1.08922400
| 15> C       3.60003200      2.16172200      0.44946000
| 16> C       2.37597200      2.30596800     -0.11470300
| 17> N       1.40506900      1.35246800     -0.01556900
| 18> C       1.57105500      0.11775800      0.72676900
| 19> C       2.97644700     -0.07458200      1.20754900
| 20> C       0.29449400      1.30710200     -0.93332400
| 21> C      -0.75371200      2.36744200     -0.63743500
| 22> O      -0.58576900      3.30948100      0.09579700
| 23> O      -1.82334500      2.19779100     -1.40209200
| 24> C      -2.87591400      3.14366500     -1.25711100
| 25> H       4.90546200      0.73045200      1.48362600
| 26> H       2.09090300      3.19284500     -0.68538100
| 27> H       0.85345400      0.06514400      1.56912200
| 28> H       3.20965300     -1.02310200      1.69320800
| 29> H       0.65301000      1.57404900     -1.94235200
| 30> H      -3.62801200      2.88150300     -2.00912600
| 31> H      -2.50573300      4.16464000     -1.42468700
| 32> C       0.99625600     -0.94660200     -0.27535200
| 33> C      -0.15827600     -0.19021900     -1.00160300
| 34> C      -1.56958400     -0.52549100     -0.57615400
| 35> C      -2.34627300     -1.33774500     -1.39979300
| 36> C      -3.66477900     -1.66130800     -1.07422300
| 37> C      -4.22038300     -1.15210800      0.09501100
| 38> C      -3.46669600     -0.33444400      0.93964200
| 39> C      -2.14493400     -0.03156700      0.61051000
| 40> O      -1.33954600      0.73671000      1.36826500
| 41> C      -1.86013200      1.40726400      2.49348200
| 42> N       2.08063700     -1.21905200     -1.29063600
| 43> O       2.77417600     -2.19893700     -1.15318900
| 44> H      -0.09629500     -0.49289000     -2.05260000
| 45> H      -1.90614800     -1.72171400     -2.32419400
| 46> H      -4.25189600     -2.29964000     -1.73763200
| 47> H      -5.25332000     -1.38756200      0.36331100
| 48> H      -3.91136500      0.05723900      1.85489100
| 49> H      -2.70727400      2.05399300      2.21382300
| 50> H      -1.04517500      2.02776500      2.88443000
| 51> H      -2.18289600      0.69378300      3.26855400
| 52> O       2.24648100     -0.37347900     -2.14020000
| 53> H      -3.31160400      3.07672900     -0.24951400
| 54> H       4.34156600      2.95614500      0.37570600
| 55> C       0.61202200     -2.26744700      0.41039700
| 56> F      -0.33948300     -2.06488300      1.31928700
| 57> F       0.15567300     -3.15138200     -0.47608800
| 58> F       1.62978000     -2.82494900      1.06437000
| 59> *
| 60>
| 61>                          ****END OF INPUT****
 Total Charge           Charge          ....    0
 Multiplicity           Mult            ....    1
 Number of Electrons    NEL             ....  206
Dispersion correction           -0.061619003
FINAL SINGLE POINT ENERGY     -1480.213715684894
Dispersion correction            ... done
Dispersion correction           -0.061194056
FINAL SINGLE POINT ENERGY     -1480.215151005456
Dispersion correction            ... done
Dispersion correction           -0.061801988
FINAL SINGLE POINT ENERGY     -1480.213846571514
Dispersion correction            ... done
FINAL SINGLE POINT ENERGY     -1480.215449237532
FINAL SINGLE POINT ENERGY     -1480.215443986530
FINAL SINGLE POINT ENERGY     -1480.215469570366
FINAL SINGLE POINT ENERGY     -1480.215491925403
FINAL SINGLE POINT ENERGY     -1480.215499944466
FINAL SINGLE POINT ENERGY     -1480.215509261917
FINAL SINGLE POINT ENERGY     -1480.215514398637
FINAL SINGLE POINT ENERGY     -1480.215524611264
FINAL SINGLE POINT ENERGY     -1480.215524096994
FINAL SINGLE POINT ENERGY     -1480.215523005966
FINAL SINGLE POINT ENERGY     -1480.215520759717
Dispersion correction           -0.061463693
FINAL SINGLE POINT ENERGY     -1480.215516841237
Dispersion correction            ... done
Dispersion correction           -0.061465157
FINAL SINGLE POINT ENERGY     -1480.215517460328
Dispersion correction            ... done
                    ***********************HURRAY********************

CARTESIAN COORDINATES (ANGSTROEM)
---------------------------------
  C      3.920479    0.911364    1.037463
  C      3.624016    2.145521    0.357019
  C      2.393931    2.290773   -0.171121
  N      1.407638    1.366419   -0.006588
  C      1.590106    0.135449    0.733891
  C      2.996203   -0.043889    1.204013
  C      0.288631    1.310518   -0.910607
  C     -0.761001    2.370029   -0.619894
  O     -0.601664    3.302442    0.124836
  O     -1.818092    2.209069   -1.402140
  C     -2.861884    3.176855   -1.264884
  H      4.921678    0.748055    1.422019
  H      2.110123    3.154086   -0.760976
  H      0.890750    0.086672    1.579724
  H      3.228623   -0.966413    1.719503
  H      0.637458    1.571417   -1.916219
  H     -3.632238    2.879262   -1.971315
  H     -2.488802    4.173075   -1.502514
  C      1.003030   -0.940783   -0.252685
  C     -0.157665   -0.187541   -0.971929
  C     -1.567301   -0.524750   -0.553734
  C     -2.333993   -1.309913   -1.401689
  C     -3.653187   -1.628917   -1.107671
  C     -4.221849   -1.140004    0.055634
  C     -3.480204   -0.347223    0.922652
  C     -2.157620   -0.048857    0.624038
  O     -1.362486    0.699724    1.415077
  C     -1.928652    1.336624    2.545390
  N      2.073612   -1.231511   -1.277593
  O      2.744656   -2.230702   -1.163040
  H     -0.096853   -0.483981   -2.016953
  H     -1.885313   -1.673736   -2.320264
  H     -4.228429   -2.244324   -1.788498
  H     -5.252676   -1.370051    0.300044
  H     -3.935021    0.029355    1.828929
  H     -2.754764    1.989900    2.252246
  H     -1.130801    1.932209    2.983457
  H     -2.280812    0.601789    3.273837
  O      2.249167   -0.380223   -2.120503
  H     -3.253412    3.163557   -0.247394
  H      4.368067    2.918806    0.235120
  C      0.626716   -2.251289    0.457480
  F     -0.320584   -2.039393    1.370292
  F      0.163679   -3.157655   -0.407256
  F      1.649845   -2.798594    1.116278

 Multiplicity           Mult            ....    1
 Number of Electrons    NEL             ....  206
 Basis Dimension        Dim             ....  970

ORBITAL ENERGIES
----------------

  NO   OCC          E(Eh)            E(eV)
   0   2.0000     -24.820206      -675.3922
   1   2.0000     -24.819880      -675.3833
   2   2.0000     -24.817269      -675.3122
   3   2.0000     -19.263653      -524.1906
   4   2.0000     -19.260731      -524.1111
   5   2.0000     -19.260697      -524.1102
   6   2.0000     -19.250414      -523.8304
   7   2.0000     -19.202077      -522.5151
   8   2.0000     -14.638667      -398.3384
   9   2.0000     -14.426671      -392.5697
  10   2.0000     -10.495408      -285.5946
  11   2.0000     -10.359905      -281.9073
  12   2.0000     -10.332157      -281.1523
  13   2.0000     -10.298503      -280.2365
  14   2.0000     -10.293296      -280.0948
  15   2.0000     -10.290553      -280.0202
  16   2.0000     -10.279184      -279.7108
  17   2.0000     -10.270769      -279.4818
  18   2.0000     -10.268378      -279.4168
  19   2.0000     -10.265225      -279.3310
  20   2.0000     -10.244624      -278.7704
  21   2.0000     -10.232902      -278.4514
  22   2.0000     -10.232396      -278.4376
  23   2.0000     -10.231985      -278.4265
  24   2.0000     -10.227452      -278.3031
  25   2.0000     -10.226454      -278.2760
  26   2.0000     -10.222882      -278.1788
  27   2.0000     -10.208912      -277.7986
  28   2.0000      -1.373445       -37.3733
  29   2.0000      -1.296823       -35.2884
  30   2.0000      -1.280611       -34.8472
  31   2.0000      -1.277558       -34.7641
  32   2.0000      -1.154525       -31.4162
  33   2.0000      -1.117368       -30.4051
  34   2.0000      -1.114240       -30.3200
  35   2.0000      -1.061589       -28.8873
  36   2.0000      -1.021897       -27.8072
  37   2.0000      -0.913254       -24.8509
  38   2.0000      -0.890384       -24.2286
  39   2.0000      -0.859290       -23.3825
  40   2.0000      -0.816588       -22.2205
  41   2.0000      -0.796644       -21.6778
  42   2.0000      -0.786200       -21.3936
  43   2.0000      -0.781849       -21.2752
  44   2.0000      -0.754779       -20.5386
  45   2.0000      -0.748040       -20.3552
  46   2.0000      -0.725448       -19.7404
  47   2.0000      -0.711910       -19.3721
  48   2.0000      -0.672216       -18.2919
  49   2.0000      -0.665576       -18.1113
  50   2.0000      -0.651804       -17.7365
  51   2.0000      -0.636836       -17.3292
  52   2.0000      -0.635147       -17.2832
  53   2.0000      -0.632269       -17.2049
  54   2.0000      -0.617932       -16.8148
  55   2.0000      -0.604295       -16.4437
  56   2.0000      -0.595051       -16.1922
  57   2.0000      -0.581099       -15.8125
  58   2.0000      -0.569149       -15.4873
  59   2.0000      -0.557091       -15.1592
  60   2.0000      -0.553456       -15.0603
  61   2.0000      -0.542000       -14.7486
  62   2.0000      -0.536677       -14.6037
  63   2.0000      -0.521148       -14.1812
  64   2.0000      -0.515807       -14.0358
  65   2.0000      -0.511175       -13.9098
  66   2.0000      -0.507670       -13.8144
  67   2.0000      -0.505338       -13.7509
  68   2.0000      -0.504382       -13.7249
  69   2.0000      -0.493989       -13.4421
  70   2.0000      -0.487430       -13.2636
  71   2.0000      -0.485876       -13.2214
  72   2.0000      -0.474920       -12.9232
  73   2.0000      -0.469465       -12.7748
  74   2.0000      -0.466725       -12.7002
  75   2.0000      -0.462241       -12.5782
  76   2.0000      -0.450647       -12.2627
  77   2.0000      -0.446341       -12.1456
  78   2.0000      -0.445712       -12.1284
  79   2.0000      -0.441725       -12.0200
  80   2.0000      -0.438016       -11.9190
  81   2.0000      -0.427898       -11.6437
  82   2.0000      -0.424432       -11.5494
  83   2.0000      -0.407365       -11.0850
  84   2.0000      -0.402997       -10.9661
  85   2.0000      -0.393671       -10.7123
  86   2.0000      -0.386909       -10.5283
  87   2.0000      -0.383174       -10.4267
  88   2.0000      -0.379050       -10.3145
  89   2.0000      -0.372550       -10.1376
  90   2.0000      -0.363488        -9.8910
  91   2.0000      -0.361345        -9.8327
  92   2.0000      -0.351945        -9.5769
  93   2.0000      -0.347682        -9.4609
  94   2.0000      -0.342164        -9.3108
  95   2.0000      -0.341091        -9.2815
  96   2.0000      -0.334470        -9.1014
  97   2.0000      -0.330586        -8.9957
  98   2.0000      -0.310864        -8.4590
  99   2.0000      -0.299284        -8.1439
 100   2.0000      -0.273179        -7.4336
 101   2.0000      -0.242678        -6.6036
 102   2.0000      -0.202620        -5.5136
 103   0.0000      -0.082256        -2.2383
 104   0.0000      -0.031098        -0.8462
 105   0.0000      -0.018100        -0.4925
 106   0.0000      -0.001681        -0.0457
 107   0.0000       0.006968         0.1896

MULLIKEN ATOMIC CHARGES
-----------------------
   0 C :   -0.122611
   1 C :   -0.243717
   2 C :   -0.124762
   3 N :   -0.011969
   4 C :    0.011112
   5 C :   -0.326684
   6 C :    0.035550
   7 C :    0.290912
   8 O :   -0.384263
   9 O :   -0.220174
  10 C :   -0.261250
  11 H :    0.153385
  12 H :    0.168933
  13 H :    0.140830
  14 H :    0.156530
  15 H :    0.149611
  16 H :    0.162132
  17 H :    0.156534
  18 C :   -0.028434
  19 C :    0.072309
  20 C :   -0.072424
  21 C :   -0.253122
  22 C :   -0.197749
  23 C :   -0.151480
  24 C :   -0.284443
  25 C :    0.309211
  26 O :   -0.258223
  27 C :   -0.292099
  28 N :    0.471098
  29 O :   -0.317084
  30 H :    0.168871
  31 H :    0.145707
  32 H :    0.147061
  33 H :    0.152054
  34 H :    0.165324
  35 H :    0.156516
  36 H :    0.162499
  37 H :    0.160084
  38 O :   -0.325756
  39 H :    0.156184
  40 H :    0.156267
  41 C :    0.468293
  42 F :   -0.143640
  43 F :   -0.153369
  44 F :   -0.143757
Sum of atomic charges:    0.0000000

LOEWDIN ATOMIC CHARGES
----------------------
   0 C :   -0.157374
   1 C :   -0.222917
   2 C :   -0.180712
   3 N :    0.257179
   4 C :   -0.189147
   5 C :   -0.161646
   6 C :   -0.185011
   7 C :   -0.486387
   8 O :    0.091662
   9 O :    0.280566
  10 C :   -0.302120
  11 H :    0.156995
  12 H :    0.161406
  13 H :    0.173837
  14 H :    0.152538
  15 H :    0.186100
  16 H :    0.123052
  17 H :    0.120051
  18 C :   -0.165544
  19 C :   -0.112231
  20 C :   -0.122545
  21 C :   -0.111055
  22 C :   -0.163516
  23 C :   -0.140515
  24 C :   -0.136767
  25 C :   -0.245313
  26 O :    0.272249
  27 C :   -0.325151
  28 N :   -0.034622
  29 O :   -0.006945
  30 H :    0.192392
  31 H :    0.160982
  32 H :    0.152901
  33 H :    0.155333
  34 H :    0.161744
  35 H :    0.119471
  36 H :    0.123245
  37 H :    0.119943
  38 O :    0.006554
  39 H :    0.119184
  40 H :    0.150708
  41 C :   -0.668664
  42 F :    0.240280
  43 F :    0.219506
  44 F :    0.220304

  Mayer bond orders larger than 0.100000
B(  0-C ,  1-C ) :   1.0902 B(  0-C ,  5-C ) :   1.8515 B(  0-C , 11-H ) :   0.9574
B(  1-C ,  2-C ) :   1.6788 B(  1-C , 40-H ) :   0.9702 B(  2-C ,  3-N ) :   1.1824
B(  2-C , 12-H ) :   0.9501 B(  3-N ,  4-C ) :   0.9859 B(  3-N ,  6-C ) :   0.9982
B(  4-C ,  5-C ) :   0.9294 B(  4-C , 13-H ) :   0.9115 B(  4-C , 18-C ) :   0.9539
B(  5-C , 14-H ) :   0.9588 B(  6-C ,  7-C ) :   0.9330 B(  6-C , 15-H ) :   0.9153
B(  6-C , 19-C ) :   1.0010 B(  7-C ,  8-O ) :   2.0225 B(  7-C ,  9-O ) :   1.2610
B(  9-O , 10-C ) :   0.8872 B( 10-C , 16-H ) :   0.9647 B( 10-C , 17-H ) :   0.9641
B( 10-C , 39-H ) :   0.9689 B( 18-C , 19-C ) :   0.9656 B( 18-C , 20-C ) :   0.1175
B( 18-C , 28-N ) :   0.9173 B( 18-C , 41-C ) :   0.9265 B( 19-C , 20-C ) :   0.7814
B( 19-C , 30-H ) :   0.9241 B( 20-C , 21-C ) :   1.3961 B( 20-C , 25-C ) :   1.1907
B( 21-C , 22-C ) :   1.4038 B( 21-C , 31-H ) :   0.9774 B( 22-C , 23-C ) :   1.3988
B( 22-C , 32-H ) :   0.9846 B( 23-C , 24-C ) :   1.3884 B( 23-C , 33-H ) :   0.9705
B( 24-C , 25-C ) :   1.3913 B( 24-C , 34-H ) :   0.9612 B( 25-C , 26-O ) :   1.0945
B( 26-O , 27-C ) :   0.9195 B( 27-C , 35-H ) :   0.9634 B( 27-C , 36-H ) :   0.9648
B( 27-C , 37-H ) :   0.9589 B( 28-N , 29-O ) :   1.6281 B( 28-N , 38-O ) :   1.5787
B( 29-O , 38-O ) :   0.2014 B( 41-C , 42-F ) :   1.1379 B( 41-C , 43-F ) :   1.1499
B( 41-C , 44-F ) :   1.1667

Dispersion correction           -0.061465825
FINAL SINGLE POINT ENERGY     -1480.215518732844

DIPOLE MOMENT
-------------
                                X             Y             Z
Electronic contribution:     12.58376     -22.25270      -1.15802
Nuclear contribution   :    -15.26033      23.37256       1.48341
                        -----------------------------------------
Total Dipole Moment    :     -2.67658       1.11986       0.32539
                        -----------------------------------------
Magnitude (a.u.)       :      2.91959
Magnitude (Debye)      :      7.42102

Dispersion correction in the Hessian             ... done   (      0.7 sec)

VIBRATIONAL FREQUENCIES
-----------------------

Scaling factor for frequencies =  1.000000000  (already applied!)

   0:         0.00 cm**-1
   1:         0.00 cm**-1
   2:         0.00 cm**-1
   3:         0.00 cm**-1
   4:         0.00 cm**-1
   5:         0.00 cm**-1
   6:        22.54 cm**-1
   7:        41.02 cm**-1
   8:        43.87 cm**-1
   9:        61.64 cm**-1
  10:        67.20 cm**-1
  11:        74.73 cm**-1
  12:        89.85 cm**-1
  13:        93.68 cm**-1
  14:        99.39 cm**-1
  15:       112.34 cm**-1
  16:       124.47 cm**-1
  17:       133.25 cm**-1
  18:       144.38 cm**-1
  19:       161.12 cm**-1
  20:       187.50 cm**-1
  21:       189.33 cm**-1
  22:       195.47 cm**-1
  23:       226.73 cm**-1
  24:       234.85 cm**-1
  25:       241.14 cm**-1
  26:       255.63 cm**-1
  27:       272.53 cm**-1
  28:       289.28 cm**-1
  29:       301.13 cm**-1
  30:       318.86 cm**-1
  31:       338.27 cm**-1
  32:       345.57 cm**-1
  33:       373.68 cm**-1
  34:       394.73 cm**-1
  35:       433.05 cm**-1
  36:       446.74 cm**-1
  37:       483.42 cm**-1
  38:       492.84 cm**-1
  39:       537.30 cm**-1
  40:       541.14 cm**-1
  41:       547.58 cm**-1
  42:       564.67 cm**-1
  43:       578.16 cm**-1
  44:       601.63 cm**-1
  45:       606.98 cm**-1
  46:       623.59 cm**-1
  47:       641.34 cm**-1
  48:       676.19 cm**-1
  49:       713.08 cm**-1
  50:       717.63 cm**-1
  51:       738.42 cm**-1
  52:       754.35 cm**-1
  53:       768.74 cm**-1
  54:       773.73 cm**-1
  55:       787.01 cm**-1
  56:       799.21 cm**-1
  57:       821.76 cm**-1
  58:       850.87 cm**-1
  59:       854.61 cm**-1
  60:       875.85 cm**-1
  61:       884.76 cm**-1
  62:       940.42 cm**-1
  63:       943.45 cm**-1
  64:       958.91 cm**-1
  65:       971.64 cm**-1
  66:       988.44 cm**-1
  67:       990.64 cm**-1
  68:      1000.15 cm**-1
  69:      1013.58 cm**-1
  70:      1032.89 cm**-1
  71:      1037.64 cm**-1
  72:      1060.50 cm**-1
  73:      1070.99 cm**-1
  74:      1074.00 cm**-1
  75:      1089.93 cm**-1
  76:      1109.95 cm**-1
  77:      1147.84 cm**-1
  78:      1156.69 cm**-1
  79:      1170.62 cm**-1
  80:      1171.43 cm**-1
  81:      1175.11 cm**-1
  82:      1181.60 cm**-1
  83:      1189.31 cm**-1
  84:      1205.65 cm**-1
  85:      1206.04 cm**-1
  86:      1208.34 cm**-1
  87:      1231.29 cm**-1
  88:      1244.55 cm**-1
  89:      1267.10 cm**-1
  90:      1274.53 cm**-1
  91:      1287.72 cm**-1
  92:      1301.47 cm**-1
  93:      1310.41 cm**-1
  94:      1318.91 cm**-1
  95:      1338.97 cm**-1
  96:      1345.95 cm**-1
  97:      1370.35 cm**-1
  98:      1374.96 cm**-1
  99:      1390.65 cm**-1
 100:      1401.52 cm**-1
 101:      1425.53 cm**-1
 102:      1441.69 cm**-1
 103:      1465.03 cm**-1
 104:      1465.87 cm**-1
 105:      1468.21 cm**-1
 106:      1472.23 cm**-1
 107:      1472.58 cm**-1
 108:      1481.11 cm**-1
 109:      1491.06 cm**-1
 110:      1499.17 cm**-1
 111:      1543.35 cm**-1
 112:      1628.15 cm**-1
 113:      1651.20 cm**-1
 114:      1654.86 cm**-1
 115:      1665.25 cm**-1
 116:      1711.74 cm**-1
 117:      1794.81 cm**-1
 118:      3009.40 cm**-1
 119:      3042.51 cm**-1
 120:      3052.55 cm**-1
 121:      3071.36 cm**-1
 122:      3116.32 cm**-1
 123:      3140.39 cm**-1
 124:      3154.87 cm**-1
 125:      3170.25 cm**-1
 126:      3185.31 cm**-1
 127:      3189.41 cm**-1
 128:      3189.94 cm**-1
 129:      3197.58 cm**-1
 130:      3212.13 cm**-1
 131:      3216.04 cm**-1
 132:      3226.58 cm**-1
 133:      3231.45 cm**-1
 134:      3246.55 cm**-1

IR SPECTRUM
-----------

 Mode   freq       eps      Int      T**2         TX        TY        TZ
       cm**-1   L/(mol*cm) km/mol    a.u.
----------------------------------------------------------------------------
  6:     22.54   0.000052    0.26  0.000720  ( 0.022670 -0.014349  0.000508)
  7:     41.02   0.000052    0.26  0.000394  ( 0.012257  0.002534 -0.015414)
  8:     43.87   0.000054    0.28  0.000387  ( 0.015254  0.009005 -0.008581)
  9:     61.64   0.000572    2.89  0.002894  (-0.044483  0.029499  0.006697)
 10:     67.20   0.000073    0.37  0.000339  (-0.006140  0.008961  0.014878)
 11:     74.73   0.001002    5.06  0.004183  ( 0.012754  0.044257 -0.045402)
 12:     89.85   0.000146    0.74  0.000508  (-0.019813  0.007176  0.007979)
 13:     93.68   0.000292    1.48  0.000973  (-0.026809  0.015458  0.003931)
 14:     99.39   0.000776    3.92  0.002437  (-0.007526  0.045840 -0.016698)
 15:    112.34   0.000099    0.50  0.000275  ( 0.001260  0.007017 -0.014977)
 16:    124.47   0.000390    1.97  0.000977  ( 0.010676 -0.020931  0.020609)
 17:    133.25   0.000339    1.71  0.000794  (-0.022962  0.016243 -0.001627)
 18:    144.38   0.000559    2.83  0.001209  (-0.020353 -0.027300  0.007040)
 19:    161.12   0.000556    2.81  0.001076  (-0.021059 -0.024878 -0.003687)
 20:    187.50   0.001246    6.30  0.002074  (-0.018779  0.013649 -0.039178)
 21:    189.33   0.000007    0.04  0.000012  ( 0.000638  0.001195  0.003213)
 22:    195.47   0.000025    0.13  0.000040  ( 0.003609 -0.005199 -0.000181)
 23:    226.73   0.001343    6.79  0.001848  (-0.032846  0.014092 -0.023895)
 24:    234.85   0.000261    1.32  0.000347  (-0.006130  0.012281 -0.012601)
 25:    241.14   0.000036    0.18  0.000046  (-0.004241 -0.003506  0.003995)
 26:    255.63   0.002295   11.60  0.002801  ( 0.044656 -0.017839  0.022110)
 27:    272.53   0.000368    1.86  0.000422  ( 0.015165 -0.004119  0.013215)
 28:    289.28   0.000228    1.15  0.000246  (-0.004240 -0.014395 -0.004519)
 29:    301.13   0.003316   16.76  0.003437  ( 0.054977  0.006453  0.019310)
 30:    318.86   0.001102    5.57  0.001079  (-0.015171 -0.029106  0.001138)
 31:    338.27   0.002329   11.77  0.002149  (-0.025904 -0.034500 -0.016953)
 32:    345.57   0.000425    2.15  0.000384  ( 0.001288  0.016839  0.009918)
 33:    373.68   0.002520   12.73  0.002104  ( 0.020790 -0.037895 -0.015368)
 34:    394.73   0.002740   13.85  0.002166  (-0.006972  0.007554  0.045391)
 35:    433.05   0.002886   14.58  0.002079  ( 0.023375 -0.011721 -0.037357)
 36:    446.74   0.002375   12.00  0.001659  (-0.007027  0.035098  0.019439)
 37:    483.42   0.001042    5.26  0.000672  ( 0.011998 -0.020913 -0.009548)
 38:    492.84   0.000528    2.67  0.000334  ( 0.003490 -0.016796 -0.006339)
 39:    537.30   0.003737   18.88  0.002170  (-0.023822  0.020952 -0.034114)
 40:    541.14   0.005144   25.99  0.002966  ( 0.028157  0.014480 -0.044316)
 41:    547.58   0.002804   14.17  0.001598  (-0.032893 -0.013546  0.018237)
 42:    564.67   0.002110   10.66  0.001166  (-0.032990 -0.004403 -0.007625)
 43:    578.16   0.003660   18.50  0.001976  (-0.008493 -0.019088 -0.039231)
 44:    601.63   0.001007    5.09  0.000522  ( 0.016530 -0.004562  0.015102)
 45:    606.98   0.001928    9.75  0.000991  (-0.003756  0.016904 -0.026298)
 46:    623.59   0.001006    5.08  0.000503  ( 0.013710  0.016527 -0.006505)
 47:    641.34   0.001201    6.07  0.000584  ( 0.005617  0.023498 -0.000812)
 48:    676.19   0.014393   72.73  0.006642  ( 0.049025 -0.064650  0.007693)
 49:    713.08   0.017323   87.54  0.007581  ( 0.007657 -0.035931 -0.078938)
 50:    717.63   0.002555   12.91  0.001111  (-0.019024  0.022025  0.016251)
 51:    738.42   0.002723   13.76  0.001151  (-0.019513 -0.013458  0.024270)
 52:    754.35   0.000974    4.92  0.000403  ( 0.002690  0.012274 -0.015653)
 53:    768.74   0.022868  115.57  0.009283  (-0.016065  0.087133 -0.037854)
 54:    773.73   0.007592   38.37  0.003062  (-0.014734  0.006715 -0.052913)
 55:    787.01   0.002393   12.09  0.000949  ( 0.014119 -0.025462 -0.010064)
 56:    799.21   0.005575   28.17  0.002177  ( 0.028106 -0.024659 -0.027904)
 57:    821.76   0.002665   13.47  0.001012  ( 0.020209 -0.010065  0.022409)
 58:    850.87   0.010801   54.58  0.003961  (-0.032916 -0.053337 -0.005745)
 59:    854.61   0.010394   52.52  0.003795  ( 0.031401  0.044229  0.029207)
 60:    875.85   0.001895    9.58  0.000675  (-0.022330  0.013274 -0.000645)
 61:    884.76   0.006523   32.97  0.002301  ( 0.016648 -0.012305 -0.043269)
 62:    940.42   0.001333    6.74  0.000442  (-0.005278 -0.010602  0.017379)
 63:    943.45   0.002432   12.29  0.000805  (-0.024320  0.012152 -0.008085)
 64:    958.91   0.000641    3.24  0.000209  (-0.002449  0.011354 -0.008588)
 65:    971.64   0.007564   38.22  0.002429  ( 0.014247 -0.047127 -0.002285)
 66:    988.44   0.011474   57.98  0.003622  (-0.003625  0.053848  0.026638)
 67:    990.64   0.000196    0.99  0.000062  ( 0.001276  0.006537  0.004156)
 68:   1000.15   0.001453    7.35  0.000454  (-0.012720  0.016871  0.002658)
 69:   1013.58   0.002197   11.10  0.000676  ( 0.024896 -0.000043 -0.007521)
 70:   1032.89   0.001618    8.18  0.000489  (-0.004839 -0.021374  0.002919)
 71:   1037.64   0.015929   80.50  0.004790  ( 0.044595 -0.049990  0.017399)
 72:   1060.50   0.001760    8.90  0.000518  (-0.014508 -0.005080  0.016784)
 73:   1070.99   0.012971   65.55  0.003780  (-0.028525  0.028363  0.046491)
 74:   1074.00   0.006780   34.26  0.001970  ( 0.025244  0.024133 -0.027392)
 75:   1089.93   0.009037   45.67  0.002588  ( 0.019640  0.022440  0.041210)
 76:   1109.95   0.021163  106.95  0.005950  ( 0.029174 -0.064448  0.030746)
 77:   1147.84   0.014769   74.64  0.004015  (-0.023578  0.028294  0.051564)
 78:   1156.69   0.005268   26.62  0.001421  ( 0.019699 -0.032137  0.000653)
 79:   1170.62   0.000146    0.74  0.000039  (-0.001341 -0.002296  0.005643)
 80:   1171.43   0.000215    1.09  0.000057  (-0.001566  0.005083 -0.005379)
 81:   1175.11   0.001806    9.13  0.000480  ( 0.017866 -0.004412 -0.011872)
 82:   1181.60   0.061945  313.04  0.016360  ( 0.084015  0.038062  0.088615)
 83:   1189.31   0.066675  336.95  0.017495  (-0.092788  0.049236  0.080381)
 84:   1205.65   0.011245   56.83  0.002911  (-0.047186 -0.021990 -0.014165)
 85:   1206.04   0.014862   75.11  0.003846  (-0.051280 -0.014958 -0.031500)
 86:   1208.34   0.003960   20.01  0.001023  (-0.029614  0.012026  0.001076)
 87:   1231.29   0.062842  317.58  0.015927  ( 0.121274 -0.016447  0.030807)
 88:   1244.55   0.014203   71.77  0.003561  (-0.049419  0.032464 -0.008063)
 89:   1267.10   0.016923   85.52  0.004168  (-0.054981 -0.017106 -0.029193)
 90:   1274.53   0.058749  296.89  0.014384  (-0.091141  0.061122 -0.048393)
 91:   1287.72   0.016064   81.18  0.003893  ( 0.040825  0.040982 -0.023382)
 92:   1301.47   0.032145  162.45  0.007708  (-0.039844 -0.078068  0.005036)
 93:   1310.41   0.060176  304.11  0.014330  ( 0.039140  0.053264  0.099807)
 94:   1318.91   0.019791  100.02  0.004683  (-0.023422  0.024784 -0.059329)
 95:   1338.97   0.015503   78.34  0.003613  (-0.053298 -0.027335 -0.005026)
 96:   1345.95   0.007334   37.06  0.001700  ( 0.035386 -0.019134 -0.009069)
 97:   1370.35   0.020947  105.86  0.004770  (-0.019121 -0.056380 -0.035011)
 98:   1374.96   0.017070   86.26  0.003874  ( 0.057691 -0.023357  0.000615)
 99:   1390.65   0.004862   24.57  0.001091  (-0.023083 -0.014785  0.018430)
100:   1401.52   0.003352   16.94  0.000746  (-0.010470 -0.002299  0.025127)
101:   1425.53   0.014589   73.73  0.003194  (-0.026387 -0.034772 -0.035895)
102:   1441.69   0.042142  212.97  0.009122  ( 0.073483 -0.033551 -0.050956)
103:   1465.03   0.004120   20.82  0.000878  ( 0.002389 -0.021613  0.020120)
104:   1465.87   0.003889   19.65  0.000828  ( 0.013641  0.017546  0.018273)
105:   1468.21   0.006781   34.27  0.001441  ( 0.035986 -0.012080 -0.000654)
106:   1472.23   0.003389   17.12  0.000718  (-0.012970  0.007057 -0.022366)
107:   1472.58   0.003066   15.50  0.000650  (-0.008141 -0.023769 -0.004310)
108:   1481.11   0.003834   19.38  0.000808  ( 0.018740  0.009984  0.018892)
109:   1491.06   0.016863   85.22  0.003529  ( 0.050898  0.030596  0.001552)
110:   1499.17   0.011729   59.27  0.002441  (-0.017004 -0.030552 -0.034911)
111:   1543.35   0.035044  177.10  0.007086  (-0.039187 -0.052558 -0.052801)
112:   1628.15   0.026966  136.27  0.005168  (-0.063124  0.015329 -0.030803)
113:   1651.20   0.063726  322.05  0.012044  ( 0.032748 -0.104124  0.011384)
114:   1654.86   0.090408  456.88  0.017049  (-0.046589  0.099825 -0.070092)
115:   1665.25   0.013877   70.13  0.002601  (-0.035073 -0.032577 -0.017582)
116:   1711.74   0.029880  151.00  0.005447  (-0.068335 -0.022818 -0.016032)
117:   1794.81   0.104003  525.59  0.018083  (-0.048187 -0.093681 -0.083576)
118:   3009.40   0.003262   16.48  0.000338  (-0.007182 -0.013676  0.009981)
119:   3042.51   0.011242   56.81  0.001153  (-0.011948  0.014667  0.028199)
120:   3052.55   0.005988   30.26  0.000612  (-0.019834  0.009956 -0.010940)
121:   3071.36   0.005631   28.46  0.000572  ( 0.018013 -0.015739 -0.000077)
122:   3116.32   0.006641   33.56  0.000665  ( 0.006282 -0.019728  0.015375)
123:   3140.39   0.000120    0.61  0.000012  ( 0.001029  0.003181  0.000885)
124:   3154.87   0.003974   20.08  0.000393  ( 0.007648  0.011488 -0.014233)
125:   3170.25   0.003154   15.94  0.000311  ( 0.013774  0.008999  0.006309)
126:   3185.31   0.000858    4.33  0.000084  ( 0.005873 -0.001849 -0.006790)
127:   3189.41   0.002215   11.19  0.000217  (-0.009408 -0.005257 -0.010027)
128:   3189.94   0.002990   15.11  0.000292  ( 0.014135 -0.005827  0.007664)
129:   3197.58   0.001487    7.51  0.000145  (-0.010497 -0.000526  0.005887)
130:   3212.13   0.000100    0.50  0.000010  ( 0.002006  0.002285  0.000675)
131:   3216.04   0.002819   14.25  0.000274  ( 0.010656  0.009172  0.008710)
132:   3226.58   0.000356    1.80  0.000034  ( 0.004520 -0.000366  0.003730)
133:   3231.45   0.000269    1.36  0.000026  ( 0.002819 -0.001229 -0.004067)
134:   3246.55   0.000651    3.29  0.000063  (-0.001420 -0.007346  0.002575)

--------------------------
THERMOCHEMISTRY AT 298.15K
--------------------------

Temperature         ... 298.15 K
Pressure            ... 1.00 atm
Total Mass          ... 398.34 AMU

Throughout the following assumptions are being made:
  (1) The electronic state is orbitally nondegenerate
  (2) There are no thermally accessible electronically excited states
  (3) Hindered rotations indicated by low frequency modes are not
      treated as such but are treated as vibrations and this may
      cause some error
  (4) All equations used are the standard statistical mechanics
      equations for an ideal gas
  (5) All vibrations are strictly harmonic

freq.      22.54  E(vib)   ...       0.56
freq.      41.02  E(vib)   ...       0.54
freq.      43.87  E(vib)   ...       0.53
freq.      61.64  E(vib)   ...       0.51
freq.      67.20  E(vib)   ...       0.50
freq.      74.73  E(vib)   ...       0.49
freq.      89.85  E(vib)   ...       0.47
freq.      93.68  E(vib)   ...       0.47
freq.      99.39  E(vib)   ...       0.46
freq.     112.34  E(vib)   ...       0.45
freq.     124.47  E(vib)   ...       0.43
freq.     133.25  E(vib)   ...       0.42
freq.     144.38  E(vib)   ...       0.41
freq.     161.12  E(vib)   ...       0.39
freq.     187.50  E(vib)   ...       0.36
freq.     189.33  E(vib)   ...       0.36
freq.     195.47  E(vib)   ...       0.36
freq.     226.73  E(vib)   ...       0.33
freq.     234.85  E(vib)   ...       0.32
freq.     241.14  E(vib)   ...       0.31
freq.     255.63  E(vib)   ...       0.30
freq.     272.53  E(vib)   ...       0.29
freq.     289.28  E(vib)   ...       0.27
freq.     301.13  E(vib)   ...       0.26
freq.     318.86  E(vib)   ...       0.25
freq.     338.27  E(vib)   ...       0.23
freq.     345.57  E(vib)   ...       0.23
freq.     373.68  E(vib)   ...       0.21
freq.     394.73  E(vib)   ...       0.20
freq.     433.05  E(vib)   ...       0.17
freq.     446.74  E(vib)   ...       0.17
freq.     483.42  E(vib)   ...       0.15
freq.     492.84  E(vib)   ...       0.14
freq.     537.30  E(vib)   ...       0.12
freq.     541.14  E(vib)   ...       0.12
freq.     547.58  E(vib)   ...       0.12
freq.     564.67  E(vib)   ...       0.11
freq.     578.16  E(vib)   ...       0.11
freq.     601.63  E(vib)   ...       0.10
freq.     606.98  E(vib)   ...       0.10
freq.     623.59  E(vib)   ...       0.09
freq.     641.34  E(vib)   ...       0.09
freq.     676.19  E(vib)   ...       0.08
freq.     713.08  E(vib)   ...       0.07
freq.     717.63  E(vib)   ...       0.07
freq.     738.42  E(vib)   ...       0.06
freq.     754.35  E(vib)   ...       0.06
freq.     768.74  E(vib)   ...       0.06
freq.     773.73  E(vib)   ...       0.05
freq.     787.01  E(vib)   ...       0.05
freq.     799.21  E(vib)   ...       0.05
freq.     821.76  E(vib)   ...       0.05
freq.     850.87  E(vib)   ...       0.04
freq.     854.61  E(vib)   ...       0.04
freq.     875.85  E(vib)   ...       0.04
freq.     884.76  E(vib)   ...       0.04
freq.     940.42  E(vib)   ...       0.03
freq.     943.45  E(vib)   ...       0.03
freq.     958.91  E(vib)   ...       0.03
freq.     971.64  E(vib)   ...       0.03
freq.     988.44  E(vib)   ...       0.02
freq.     990.64  E(vib)   ...       0.02
freq.    1000.15  E(vib)   ...       0.02
freq.    1013.58  E(vib)   ...       0.02
freq.    1032.89  E(vib)   ...       0.02
freq.    1037.64  E(vib)   ...       0.02
freq.    1060.50  E(vib)   ...       0.02
freq.    1070.99  E(vib)   ...       0.02
freq.    1074.00  E(vib)   ...       0.02
freq.    1089.93  E(vib)   ...       0.02
freq.    1109.95  E(vib)   ...       0.02
freq.    1147.84  E(vib)   ...       0.01
freq.    1156.69  E(vib)   ...       0.01
freq.    1170.62  E(vib)   ...       0.01
freq.    1171.43  E(vib)   ...       0.01
freq.    1175.11  E(vib)   ...       0.01
freq.    1181.60  E(vib)   ...       0.01
freq.    1189.31  E(vib)   ...       0.01
freq.    1205.65  E(vib)   ...       0.01
freq.    1206.04  E(vib)   ...       0.01
freq.    1208.34  E(vib)   ...       0.01
freq.    1231.29  E(vib)   ...       0.01
freq.    1244.55  E(vib)   ...       0.01
freq.    1267.10  E(vib)   ...       0.01
freq.    1274.53  E(vib)   ...       0.01
freq.    1287.72  E(vib)   ...       0.01
freq.    1301.47  E(vib)   ...       0.01
freq.    1310.41  E(vib)   ...       0.01
freq.    1318.91  E(vib)   ...       0.01
freq.    1338.97  E(vib)   ...       0.01
freq.    1345.95  E(vib)   ...       0.01
freq.    1370.35  E(vib)   ...       0.01
freq.    1374.96  E(vib)   ...       0.01
freq.    1390.65  E(vib)   ...       0.00
freq.    1401.52  E(vib)   ...       0.00
freq.    1425.53  E(vib)   ...       0.00
freq.    1441.69  E(vib)   ...       0.00
freq.    1465.03  E(vib)   ...       0.00
freq.    1465.87  E(vib)   ...       0.00
freq.    1468.21  E(vib)   ...       0.00
freq.    1472.23  E(vib)   ...       0.00
freq.    1472.58  E(vib)   ...       0.00
freq.    1481.11  E(vib)   ...       0.00
freq.    1491.06  E(vib)   ...       0.00
freq.    1499.17  E(vib)   ...       0.00
freq.    1543.35  E(vib)   ...       0.00
freq.    1628.15  E(vib)   ...       0.00
freq.    1651.20  E(vib)   ...       0.00
freq.    1654.86  E(vib)   ...       0.00
freq.    1665.25  E(vib)   ...       0.00
freq.    1711.74  E(vib)   ...       0.00
freq.    1794.81  E(vib)   ...       0.00
freq.    3009.40  E(vib)   ...       0.00
freq.    3042.51  E(vib)   ...       0.00
freq.    3052.55  E(vib)   ...       0.00
freq.    3071.36  E(vib)   ...       0.00
freq.    3116.32  E(vib)   ...       0.00
freq.    3140.39  E(vib)   ...       0.00
freq.    3154.87  E(vib)   ...       0.00
freq.    3170.25  E(vib)   ...       0.00
freq.    3185.31  E(vib)   ...       0.00
freq.    3189.41  E(vib)   ...       0.00
freq.    3189.94  E(vib)   ...       0.00
freq.    3197.58  E(vib)   ...       0.00
freq.    3212.13  E(vib)   ...       0.00
freq.    3216.04  E(vib)   ...       0.00
freq.    3226.58  E(vib)   ...       0.00
freq.    3231.45  E(vib)   ...       0.00
freq.    3246.55  E(vib)   ...       0.00

------------
INNER ENERGY
------------

The inner energy is: U= E(el) + E(ZPE) + E(vib) + E(rot) + E(trans)
    E(el)   - is the total energy from the electronic structure calculation
              = E(kin-el) + E(nuc-el) + E(el-el) + E(nuc-nuc)
    E(ZPE)  - the the zero temperature vibrational energy from the frequency calculation
    E(vib)  - the the finite temperature correction to E(ZPE) due to population
              of excited vibrational states
    E(rot)  - is the rotational thermal energy
    E(trans)- is the translational thermal energy

Summary of contributions to the inner energy U:

Rotational constants in cm-1:     0.008912     0.006662     0.004990

                             ****ORCA TERMINATED NORMALLY****
TOTAL RUN TIME: 0 days 2 hours 11 minutes 37 seconds 381 msec
