                         Program Version 5.0.4 -  RELEASE  -
|  1> %pal nprocs 24 end
|  2> ! PBE0 D3BJ def2-TZVP TightSCF OPT FREQ TightOpt
|  3> ! CPCM(dmso)
|  4> %scf
|  5> MaxIter 800
|  6> end
|  7>
|  8> %geom
|  9> MaxIter 800
| 10> MaxStep 0.15
| 11> end
| 12>
| 13> *xyz 0 1
| 14> C      -4.05665900     -0.94989800      0.19552600
| 15> C      -3.69674700     -2.08970800     -0.61860400
| 16> C      -2.38252100     -2.28463500     -0.89143300
| 17> N      -1.40973000     -1.48175000     -0.37713300
| 18> C      -1.67070400     -0.33297400      0.45738700
| 19> C      -3.12715300     -0.11834200      0.71013600
| 20> C      -0.05497700     -1.45091200     -0.84513900
| 21> C       0.86564000     -2.24688600      0.07323600
| 22> O       0.50239100     -2.86104000      1.04405000
| 23> O       2.10028400     -2.26305700     -0.40854300
| 24> C       3.07315600     -2.98377900      0.33744400
| 25> H      -5.11350700     -0.76337700      0.40754800
| 26> H      -2.02085200     -3.09516400     -1.52930500
| 27> H      -1.10086400     -0.39552200      1.40785700
| 28> H      -3.40194700      0.73438600      1.33461700
| 29> H       0.01692400     -1.94907700     -1.82398500
| 30> H       4.01088800     -2.90171700     -0.22268600
| 31> H       2.77951900     -4.03798400      0.43913200
| 32> C      -0.88403900      0.79724800     -0.28221200
| 33> C       0.25307500      0.07965700     -1.04563400
| 34> C       1.62081700      0.61855900     -0.73123700
| 35> C       2.38200000      1.21028700     -1.73756300
| 36> C       3.64621400      1.74261000     -1.47587900
| 37> C       4.15253900      1.68613600     -0.18096500
| 38> C       3.41190500      1.10038700      0.84839000
| 39> C       2.15235900      0.56457900      0.57308400
| 40> O       1.37202900     -0.04114200      1.48677500
| 41> C       1.79190800     -0.12969600      2.82825000
| 42> N      -1.83354100      1.46207700     -1.25300500
| 43> O      -2.14466200      0.81552800     -2.22748800
| 44> H       0.07774300      0.26632400     -2.11056000
| 45> H       1.97006000      1.25392100     -2.74965500
| 46> H       4.22589600      2.20008900     -2.28032300
| 47> H       5.13826400      2.10174200      0.04321800
| 48> H       3.82137800      1.06259300      1.85826900
| 49> H       1.89969700      0.87103200      3.27711000
| 50> H       2.74592700     -0.67381800      2.91743000
| 51> H       1.00942500     -0.68563200      3.35855400
| 52> O      -2.28771000      2.53518800     -0.94403100
| 53> H       3.19225800     -2.54423400      1.33798500
| 54> H      -4.45126400     -2.76388100     -1.02171300
| 55> F      -0.48581800      1.75459000      0.56815900
| 56> *
| 57>
| 58>                          ****END OF INPUT****
 Total Charge           Charge          ....    0
 Multiplicity           Mult            ....    1
 Number of Electrons    NEL             ....  182
Dispersion correction           -0.054761841
FINAL SINGLE POINT ENERGY     -1242.540363523181
Dispersion correction            ... done
Dispersion correction           -0.054231258
FINAL SINGLE POINT ENERGY     -1242.541389137359
Dispersion correction            ... done
Dispersion correction           -0.055110460
FINAL SINGLE POINT ENERGY     -1242.538944056521
Dispersion correction            ... done
FINAL SINGLE POINT ENERGY     -1242.541955394084
FINAL SINGLE POINT ENERGY     -1242.541961882685
FINAL SINGLE POINT ENERGY     -1242.541896882119
FINAL SINGLE POINT ENERGY     -1242.542018142285
FINAL SINGLE POINT ENERGY     -1242.542027493661
FINAL SINGLE POINT ENERGY     -1242.542028546892
FINAL SINGLE POINT ENERGY     -1242.542031855212
FINAL SINGLE POINT ENERGY     -1242.542033838605
Dispersion correction           -0.054570961
FINAL SINGLE POINT ENERGY     -1242.542034942506
Dispersion correction            ... done
Dispersion correction           -0.054572315
FINAL SINGLE POINT ENERGY     -1242.542034977238
Dispersion correction            ... done
                    ***********************HURRAY********************

CARTESIAN COORDINATES (ANGSTROEM)
---------------------------------
  C     -4.070143   -0.961182    0.148554
  C     -3.685394   -2.096898   -0.650446
  C     -2.372244   -2.287801   -0.886992
  N     -1.414449   -1.488300   -0.347644
  C     -1.704007   -0.327262    0.456787
  C     -3.163541   -0.123132    0.671221
  C     -0.060642   -1.451296   -0.812903
  C      0.869716   -2.254890    0.087025
  O      0.519856   -2.874749    1.057890
  O      2.094902   -2.272295   -0.416094
  C      3.071008   -3.017903    0.315525
  H     -5.123818   -0.782622    0.335420
  H     -1.995669   -3.091099   -1.509497
  H     -1.164865   -0.374440    1.416454
  H     -3.456399    0.724756    1.278841
  H      0.005377   -1.938541   -1.788904
  H      4.001172   -2.903946   -0.234777
  H      2.783661   -4.068149    0.367022
  C     -0.901839    0.799386   -0.272361
  C      0.246083    0.078277   -1.013854
  C      1.609000    0.619852   -0.697119
  C      2.354311    1.204085   -1.710473
  C      3.615292    1.735239   -1.470816
  C      4.135953    1.684820   -0.189108
  C      3.411702    1.107224    0.846834
  C      2.153842    0.575045    0.594028
  O      1.387949   -0.022648    1.527275
  C      1.862051   -0.100699    2.857656
  N     -1.821579    1.484986   -1.258596
  O     -2.147687    0.830666   -2.223871
  H      0.084645    0.253433   -2.075210
  H      1.934200    1.239203   -2.710386
  H      4.179704    2.184058   -2.279117
  H      5.117395    2.096100    0.018471
  H      3.831884    1.073322    1.843053
  H      2.007272    0.897582    3.279090
  H      2.799318   -0.660890    2.911619
  H      1.091999   -0.626228    3.418383
  O     -2.240734    2.582258   -0.981638
  H      3.174328   -2.615401    1.323204
  H     -4.419864   -2.769507   -1.068142
  F     -0.510144    1.752294    0.590656

 Multiplicity           Mult            ....    1
 Number of Electrons    NEL             ....  182
 Basis Dimension        Dim             ....  877

ORBITAL ENERGIES
----------------

  NO   OCC          E(Eh)            E(eV)
   0   2.0000     -24.799672      -674.8334
   1   2.0000     -19.263590      -524.1889
   2   2.0000     -19.259934      -524.0895
   3   2.0000     -19.257973      -524.0361
   4   2.0000     -19.248901      -523.7892
   5   2.0000     -19.202521      -522.5272
   6   2.0000     -14.630866      -398.1261
   7   2.0000     -14.428229      -392.6121
   8   2.0000     -10.375920      -282.3431
   9   2.0000     -10.359468      -281.8955
  10   2.0000     -10.293227      -280.0929
  11   2.0000     -10.291890      -280.0566
  12   2.0000     -10.291497      -280.0459
  13   2.0000     -10.271111      -279.4911
  14   2.0000     -10.270749      -279.4813
  15   2.0000     -10.268259      -279.4135
  16   2.0000     -10.267491      -279.3926
  17   2.0000     -10.244039      -278.7545
  18   2.0000     -10.232968      -278.4532
  19   2.0000     -10.232598      -278.4432
  20   2.0000     -10.231781      -278.4209
  21   2.0000     -10.227404      -278.3018
  22   2.0000     -10.226491      -278.2770
  23   2.0000     -10.222574      -278.1704
  24   2.0000     -10.208735      -277.7938
  25   2.0000      -1.304231       -35.4899
  26   2.0000      -1.274637       -34.6846
  27   2.0000      -1.154232       -31.4082
  28   2.0000      -1.114721       -30.3331
  29   2.0000      -1.113079       -30.2884
  30   2.0000      -1.061978       -28.8979
  31   2.0000      -1.023874       -27.8610
  32   2.0000      -0.900448       -24.5024
  33   2.0000      -0.874077       -23.7848
  34   2.0000      -0.855393       -23.2764
  35   2.0000      -0.814997       -22.1772
  36   2.0000      -0.792825       -21.5739
  37   2.0000      -0.785095       -21.3635
  38   2.0000      -0.780424       -21.2364
  39   2.0000      -0.750697       -20.4275
  40   2.0000      -0.724144       -19.7050
  41   2.0000      -0.713654       -19.4195
  42   2.0000      -0.675746       -18.3880
  43   2.0000      -0.653603       -17.7854
  44   2.0000      -0.638344       -17.3702
  45   2.0000      -0.630982       -17.1699
  46   2.0000      -0.613506       -16.6944
  47   2.0000      -0.604935       -16.4611
  48   2.0000      -0.600493       -16.3403
  49   2.0000      -0.581659       -15.8278
  50   2.0000      -0.570120       -15.5138
  51   2.0000      -0.556555       -15.1446
  52   2.0000      -0.551402       -15.0044
  53   2.0000      -0.544061       -14.8047
  54   2.0000      -0.530954       -14.4480
  55   2.0000      -0.528279       -14.3752
  56   2.0000      -0.523118       -14.2348
  57   2.0000      -0.506546       -13.7838
  58   2.0000      -0.505213       -13.7476
  59   2.0000      -0.495001       -13.4696
  60   2.0000      -0.488764       -13.2999
  61   2.0000      -0.484244       -13.1770
  62   2.0000      -0.481007       -13.0889
  63   2.0000      -0.468012       -12.7353
  64   2.0000      -0.464581       -12.6419
  65   2.0000      -0.453947       -12.3525
  66   2.0000      -0.450268       -12.2524
  67   2.0000      -0.440150       -11.9771
  68   2.0000      -0.435300       -11.8451
  69   2.0000      -0.434160       -11.8141
  70   2.0000      -0.423001       -11.5105
  71   2.0000      -0.404452       -11.0057
  72   2.0000      -0.401598       -10.9280
  73   2.0000      -0.396540       -10.7904
  74   2.0000      -0.382166       -10.3993
  75   2.0000      -0.381562       -10.3828
  76   2.0000      -0.374644       -10.1946
  77   2.0000      -0.370383       -10.0786
  78   2.0000      -0.365239        -9.9387
  79   2.0000      -0.361702        -9.8424
  80   2.0000      -0.350648        -9.5416
  81   2.0000      -0.347059        -9.4439
  82   2.0000      -0.344514        -9.3747
  83   2.0000      -0.336480        -9.1561
  84   2.0000      -0.332707        -9.0534
  85   2.0000      -0.329474        -8.9655
  86   2.0000      -0.312906        -8.5146
  87   2.0000      -0.299314        -8.1447
  88   2.0000      -0.274058        -7.4575
  89   2.0000      -0.242525        -6.5994
  90   2.0000      -0.202609        -5.5133
  91   0.0000      -0.078203        -2.1280
  92   0.0000      -0.030933        -0.8417
  93   0.0000      -0.018130        -0.4933
  94   0.0000      -0.000415        -0.0113
  95   0.0000       0.004912         0.1337

MULLIKEN ATOMIC CHARGES
-----------------------
   0 C :   -0.140064
   1 C :   -0.235111
   2 C :   -0.139081
   3 N :    0.027854
   4 C :    0.038755
   5 C :   -0.281388
   6 C :   -0.057471
   7 C :    0.285778
   8 O :   -0.386530
   9 O :   -0.217632
  10 C :   -0.259067
  11 H :    0.152535
  12 H :    0.173133
  13 H :    0.118254
  14 H :    0.156769
  15 H :    0.155397
  16 H :    0.161885
  17 H :    0.157377
  18 C :    0.146845
  19 C :    0.092069
  20 C :    0.004375
  21 C :   -0.257606
  22 C :   -0.193826
  23 C :   -0.147479
  24 C :   -0.301994
  25 C :    0.308071
  26 O :   -0.250071
  27 C :   -0.296597
  28 N :    0.484842
  29 O :   -0.338763
  30 H :    0.144060
  31 H :    0.147865
  32 H :    0.147475
  33 H :    0.152106
  34 H :    0.166047
  35 H :    0.159447
  36 H :    0.155974
  37 H :    0.163115
  38 O :   -0.334883
  39 H :    0.153699
  40 H :    0.158717
  41 F :   -0.174880
Sum of atomic charges:   -0.0000000

LOEWDIN ATOMIC CHARGES
----------------------
   0 C :   -0.157600
   1 C :   -0.224689
   2 C :   -0.178835
   3 N :    0.262987
   4 C :   -0.200863
   5 C :   -0.160383
   6 C :   -0.173812
   7 C :   -0.486044
   8 O :    0.086689
   9 O :    0.278762
  10 C :   -0.302246
  11 H :    0.156497
  12 H :    0.161459
  13 H :    0.175548
  14 H :    0.154614
  15 H :    0.187212
  16 H :    0.123151
  17 H :    0.120232
  18 C :   -0.323138
  19 C :   -0.122641
  20 C :   -0.114708
  21 C :   -0.107622
  22 C :   -0.164411
  23 C :   -0.141691
  24 C :   -0.136978
  25 C :   -0.239884
  26 O :    0.272312
  27 C :   -0.326617
  28 N :   -0.053238
  29 O :   -0.012634
  30 H :    0.188625
  31 H :    0.160551
  32 H :    0.152669
  33 H :    0.155229
  34 H :    0.161415
  35 H :    0.120337
  36 H :    0.117813
  37 H :    0.122812
  38 O :   -0.016547
  39 H :    0.119091
  40 H :    0.150593
  41 F :    0.215981

  Mayer bond orders larger than 0.100000
B(  0-C ,  1-C ) :   1.0915 B(  0-C ,  5-C ) :   1.8504 B(  0-C , 11-H ) :   0.9576
B(  1-C ,  2-C ) :   1.6781 B(  1-C , 40-H ) :   0.9668 B(  2-C ,  3-N ) :   1.1981
B(  2-C , 12-H ) :   0.9449 B(  3-N ,  4-C ) :   0.9484 B(  3-N ,  6-C ) :   0.9729
B(  4-C ,  5-C ) :   0.9402 B(  4-C , 13-H ) :   0.8945 B(  4-C , 18-C ) :   0.9699
B(  5-C , 14-H ) :   0.9645 B(  6-C ,  7-C ) :   0.9733 B(  6-C , 15-H ) :   0.8993
B(  6-C , 19-C ) :   0.9660 B(  7-C ,  8-O ) :   2.0156 B(  7-C ,  9-O ) :   1.2444
B(  9-O , 10-C ) :   0.8856 B( 10-C , 16-H ) :   0.9648 B( 10-C , 17-H ) :   0.9632
B( 10-C , 39-H ) :   0.9702 B( 18-C , 19-C ) :   0.9783 B( 18-C , 28-N ) :   0.8551
B( 18-C , 38-O ) :   0.1077 B( 18-C , 41-F ) :   1.1496 B( 19-C , 20-C ) :   0.8096
B( 19-C , 30-H ) :   0.9149 B( 20-C , 21-C ) :   1.3795 B( 20-C , 25-C ) :   1.2230
B( 21-C , 22-C ) :   1.3975 B( 21-C , 31-H ) :   0.9796 B( 22-C , 23-C ) :   1.4048
B( 22-C , 32-H ) :   0.9824 B( 23-C , 24-C ) :   1.3895 B( 23-C , 33-H ) :   0.9689
B( 24-C , 25-C ) :   1.3709 B( 24-C , 34-H ) :   0.9606 B( 25-C , 26-O ) :   1.0941
B( 26-O , 27-C ) :   0.9250 B( 27-C , 35-H ) :   0.9599 B( 27-C , 36-H ) :   0.9619
B( 27-C , 37-H ) :   0.9644 B( 28-N , 29-O ) :   1.6107 B( 28-N , 38-O ) :   1.5933
B( 29-O , 38-O ) :   0.2037

Dispersion correction           -0.054576116
FINAL SINGLE POINT ENERGY     -1242.542034495924

DIPOLE MOMENT
-------------
                                X             Y             Z
Electronic contribution:     -9.85649       8.37723      -5.14673
Nuclear contribution   :     12.54617      -9.52614       5.58410
                        -----------------------------------------
Total Dipole Moment    :      2.68968      -1.14891       0.43737
                        -----------------------------------------
Magnitude (a.u.)       :      2.95731
Magnitude (Debye)      :      7.51688

Dispersion correction in the Hessian             ... done   (      0.7 sec)

VIBRATIONAL FREQUENCIES
-----------------------

Scaling factor for frequencies =  1.000000000  (already applied!)

   0:         0.00 cm**-1
   1:         0.00 cm**-1
   2:         0.00 cm**-1
   3:         0.00 cm**-1
   4:         0.00 cm**-1
   5:         0.00 cm**-1
   6:        22.99 cm**-1
   7:        47.28 cm**-1
   8:        57.99 cm**-1
   9:        67.26 cm**-1
  10:        71.91 cm**-1
  11:        89.22 cm**-1
  12:        89.71 cm**-1
  13:       103.89 cm**-1
  14:       115.82 cm**-1
  15:       118.21 cm**-1
  16:       144.79 cm**-1
  17:       151.36 cm**-1
  18:       183.13 cm**-1
  19:       195.42 cm**-1
  20:       206.85 cm**-1
  21:       228.97 cm**-1
  22:       242.74 cm**-1
  23:       246.46 cm**-1
  24:       281.33 cm**-1
  25:       289.66 cm**-1
  26:       300.22 cm**-1
  27:       318.89 cm**-1
  28:       368.60 cm**-1
  29:       369.47 cm**-1
  30:       375.53 cm**-1
  31:       436.13 cm**-1
  32:       444.13 cm**-1
  33:       479.84 cm**-1
  34:       489.06 cm**-1
  35:       550.69 cm**-1
  36:       553.32 cm**-1
  37:       571.66 cm**-1
  38:       576.53 cm**-1
  39:       589.05 cm**-1
  40:       609.80 cm**-1
  41:       643.07 cm**-1
  42:       654.36 cm**-1
  43:       667.69 cm**-1
  44:       711.59 cm**-1
  45:       723.34 cm**-1
  46:       754.14 cm**-1
  47:       767.38 cm**-1
  48:       770.44 cm**-1
  49:       781.71 cm**-1
  50:       798.77 cm**-1
  51:       835.12 cm**-1
  52:       849.38 cm**-1
  53:       869.13 cm**-1
  54:       873.40 cm**-1
  55:       889.74 cm**-1
  56:       930.59 cm**-1
  57:       946.40 cm**-1
  58:       959.15 cm**-1
  59:       990.24 cm**-1
  60:       990.63 cm**-1
  61:       995.73 cm**-1
  62:      1000.67 cm**-1
  63:      1015.21 cm**-1
  64:      1023.92 cm**-1
  65:      1039.26 cm**-1
  66:      1064.71 cm**-1
  67:      1072.33 cm**-1
  68:      1086.37 cm**-1
  69:      1110.37 cm**-1
  70:      1148.04 cm**-1
  71:      1155.61 cm**-1
  72:      1170.78 cm**-1
  73:      1172.69 cm**-1
  74:      1173.64 cm**-1
  75:      1195.38 cm**-1
  76:      1206.15 cm**-1
  77:      1206.70 cm**-1
  78:      1231.88 cm**-1
  79:      1238.86 cm**-1
  80:      1246.65 cm**-1
  81:      1250.35 cm**-1
  82:      1265.70 cm**-1
  83:      1273.69 cm**-1
  84:      1309.96 cm**-1
  85:      1323.05 cm**-1
  86:      1330.00 cm**-1
  87:      1352.01 cm**-1
  88:      1361.78 cm**-1
  89:      1369.72 cm**-1
  90:      1387.57 cm**-1
  91:      1402.58 cm**-1
  92:      1436.20 cm**-1
  93:      1448.44 cm**-1
  94:      1465.45 cm**-1
  95:      1465.76 cm**-1
  96:      1469.35 cm**-1
  97:      1472.61 cm**-1
  98:      1475.37 cm**-1
  99:      1484.34 cm**-1
 100:      1499.94 cm**-1
 101:      1501.09 cm**-1
 102:      1541.73 cm**-1
 103:      1622.32 cm**-1
 104:      1650.71 cm**-1
 105:      1659.50 cm**-1
 106:      1665.10 cm**-1
 107:      1709.25 cm**-1
 108:      1795.69 cm**-1
 109:      2977.32 cm**-1
 110:      3040.88 cm**-1
 111:      3073.95 cm**-1
 112:      3092.11 cm**-1
 113:      3113.52 cm**-1
 114:      3142.30 cm**-1
 115:      3157.61 cm**-1
 116:      3168.54 cm**-1
 117:      3186.52 cm**-1
 118:      3188.26 cm**-1
 119:      3189.60 cm**-1
 120:      3196.50 cm**-1
 121:      3211.49 cm**-1
 122:      3211.81 cm**-1
 123:      3215.12 cm**-1
 124:      3230.67 cm**-1
 125:      3246.72 cm**-1

IR SPECTRUM
-----------

 Mode   freq       eps      Int      T**2         TX        TY        TZ
       cm**-1   L/(mol*cm) km/mol    a.u.
----------------------------------------------------------------------------
  6:     22.99   0.000096    0.49  0.001305  (-0.008261 -0.013687 -0.032392)
  7:     47.28   0.000082    0.42  0.000544  (-0.020605 -0.002769  0.010592)
  8:     57.99   0.000118    0.60  0.000634  (-0.003105  0.024587 -0.004407)
  9:     67.26   0.000714    3.61  0.003313  ( 0.040122 -0.039804  0.010904)
 10:     71.91   0.000686    3.47  0.002979  (-0.004737  0.046806  0.027673)
 11:     89.22   0.000553    2.79  0.001932  (-0.038088  0.021685 -0.003407)
 12:     89.71   0.000233    1.18  0.000811  (-0.009232 -0.022924 -0.014169)
 13:    103.89   0.000537    2.71  0.001612  ( 0.010961  0.036378  0.012974)
 14:    115.82   0.000035    0.18  0.000095  ( 0.009671 -0.000953  0.000442)
 15:    118.21   0.000586    2.96  0.001547  ( 0.014812 -0.034915 -0.010440)
 16:    144.79   0.000635    3.21  0.001368  ( 0.023167  0.028230 -0.005894)
 17:    151.36   0.000112    0.57  0.000231  (-0.005958 -0.001295  0.013925)
 18:    183.13   0.000405    2.05  0.000690  ( 0.009993 -0.021273 -0.011740)
 19:    195.42   0.000447    2.26  0.000714  ( 0.006519 -0.023821 -0.010177)
 20:    206.85   0.001185    5.99  0.001788  (-0.004618  0.031010  0.028374)
 21:    228.97   0.000235    1.19  0.000320  (-0.017116 -0.003933 -0.003450)
 22:    242.74   0.000490    2.47  0.000630  ( 0.023162  0.003587 -0.008958)
 23:    246.46   0.000461    2.33  0.000583  ( 0.013848 -0.018761 -0.006301)
 24:    281.33   0.001608    8.12  0.001783  (-0.041157  0.009346  0.001460)
 25:    289.66   0.004024   20.34  0.004335  (-0.063308 -0.010412  0.014795)
 26:    300.22   0.000460    2.32  0.000478  (-0.008334 -0.017837  0.009509)
 27:    318.89   0.000212    1.07  0.000208  ( 0.013746 -0.001610 -0.004024)
 28:    368.60   0.001587    8.02  0.001343  ( 0.022453 -0.023790  0.016525)
 29:    369.47   0.002087   10.55  0.001763  ( 0.005224  0.036960 -0.019220)
 30:    375.53   0.001991   10.06  0.001654  ( 0.029845  0.022232 -0.016410)
 31:    436.13   0.004456   22.52  0.003188  ( 0.015348 -0.040633  0.036081)
 32:    444.13   0.001362    6.88  0.000957  (-0.000451  0.023934  0.019592)
 33:    479.84   0.000257    1.30  0.000167  ( 0.009386  0.000712  0.008850)
 34:    489.06   0.001017    5.14  0.000649  ( 0.002747 -0.023035 -0.010541)
 35:    550.69   0.002843   14.37  0.001611  (-0.036747  0.015685  0.003857)
 36:    553.32   0.003316   16.76  0.001870  ( 0.008048  0.040298  0.013468)
 37:    571.66   0.006470   32.69  0.003532  (-0.033271 -0.019183  0.045352)
 38:    576.53   0.002410   12.18  0.001304  (-0.023633 -0.014219 -0.023318)
 39:    589.05   0.002995   15.14  0.001587  ( 0.004194 -0.023533 -0.031867)
 40:    609.80   0.003742   18.91  0.001915  (-0.034850  0.024581  0.009802)
 41:    643.07   0.003036   15.34  0.001473  ( 0.000560 -0.036118  0.012982)
 42:    654.36   0.001407    7.11  0.000671  (-0.016743 -0.010702 -0.016623)
 43:    667.69   0.011070   55.94  0.005174  (-0.041357  0.047023 -0.035387)
 44:    711.59   0.017075   86.29  0.007488  (-0.010463 -0.046168  0.072438)
 45:    723.34   0.002324   11.74  0.001003  (-0.021307  0.020864 -0.010643)
 46:    754.14   0.000208    1.05  0.000086  ( 0.006334 -0.004685  0.004914)
 47:    767.38   0.014606   73.81  0.005940  (-0.030384  0.070510  0.006686)
 48:    770.44   0.007657   38.69  0.003101  ( 0.009060 -0.032135 -0.044572)
 49:    781.71   0.008820   44.57  0.003521  (-0.029582  0.046159 -0.022696)
 50:    798.77   0.000303    1.53  0.000119  ( 0.009401  0.005481 -0.000337)
 51:    835.12   0.002824   14.27  0.001055  ( 0.025173 -0.020165  0.003856)
 52:    849.38   0.021481  108.56  0.007892  (-0.044056 -0.063990  0.043088)
 53:    869.13   0.003281   16.58  0.001178  (-0.016082  0.027737 -0.012250)
 54:    873.40   0.002323   11.74  0.000830  (-0.020110  0.019783 -0.005856)
 55:    889.74   0.002628   13.28  0.000922  ( 0.015237 -0.002949  0.026090)
 56:    930.59   0.003835   19.38  0.001286  ( 0.007337  0.030512  0.017353)
 57:    946.40   0.001094    5.53  0.000361  ( 0.017333 -0.005640 -0.005338)
 58:    959.15   0.000528    2.67  0.000172  (-0.004440  0.012238  0.001474)
 59:    990.24   0.009412   47.57  0.002966  (-0.004408 -0.053862  0.006762)
 60:    990.63   0.000045    0.23  0.000014  (-0.000654 -0.003659  0.000536)
 61:    995.73   0.000809    4.09  0.000254  (-0.003252 -0.007779  0.013510)
 62:   1000.67   0.000571    2.88  0.000178  (-0.003935  0.012604  0.001917)
 63:   1015.21   0.001941    9.81  0.000597  (-0.019122 -0.002099 -0.015049)
 64:   1023.92   0.001618    8.18  0.000493  ( 0.001225  0.018219 -0.012641)
 65:   1039.26   0.017604   88.96  0.005286  ( 0.053242 -0.049152 -0.005949)
 66:   1064.71   0.003660   18.50  0.001073  (-0.013733 -0.013414 -0.026537)
 67:   1072.33   0.009326   47.13  0.002714  (-0.026278 -0.000185 -0.044984)
 68:   1086.37   0.010851   54.84  0.003117  (-0.005530 -0.012331  0.054170)
 69:   1110.37   0.001610    8.14  0.000453  ( 0.018717 -0.008875  0.004844)
 70:   1148.04   0.014361   72.58  0.003904  ( 0.015148 -0.011539  0.059507)
 71:   1155.61   0.004048   20.46  0.001093  ( 0.015230 -0.029327 -0.001066)
 72:   1170.78   0.000289    1.46  0.000077  (-0.000524 -0.006771 -0.005569)
 73:   1172.69   0.000113    0.57  0.000030  (-0.003219  0.004388  0.000568)
 74:   1173.64   0.000941    4.76  0.000250  ( 0.004457 -0.001206  0.015133)
 75:   1195.38   0.004707   23.79  0.001229  (-0.034853 -0.002357 -0.002896)
 76:   1206.15   0.002212   11.18  0.000572  ( 0.017849 -0.007846 -0.013860)
 77:   1206.70   0.004070   20.57  0.001053  (-0.025308  0.014353 -0.014355)
 78:   1231.88   0.001148    5.80  0.000291  (-0.004770 -0.014546 -0.007507)
 79:   1238.86   0.011473   57.98  0.002890  ( 0.036373 -0.010672 -0.038119)
 80:   1246.65   0.035819  181.01  0.008966  (-0.011933  0.088552  0.031341)
 81:   1250.35   0.068230  344.80  0.017029  ( 0.126072 -0.033164  0.005908)
 82:   1265.70   0.045701  230.95  0.011268  (-0.104547  0.018379  0.000038)
 83:   1273.69   0.017819   90.05  0.004366  (-0.060485 -0.011628 -0.023920)
 84:   1309.96   0.061030  308.42  0.014539  ( 0.045666  0.047437 -0.101010)
 85:   1323.05   0.009444   47.73  0.002228  ( 0.003632  0.000330 -0.047056)
 86:   1330.00   0.009598   48.51  0.002252  (-0.040843 -0.013904  0.019764)
 87:   1352.01   0.004388   22.17  0.001013  ( 0.026413  0.005840 -0.016763)
 88:   1361.78   0.022464  113.53  0.005148  (-0.052452  0.029868 -0.038789)
 89:   1369.72   0.022857  115.51  0.005208  ( 0.071762 -0.000816 -0.007555)
 90:   1387.57   0.005860   29.61  0.001318  (-0.015367 -0.005786 -0.032377)
 91:   1402.58   0.001352    6.83  0.000301  ( 0.004246  0.011767 -0.012015)
 92:   1436.20   0.013510   68.27  0.002935  (-0.020071 -0.047633  0.016237)
 93:   1448.44   0.037669  190.36  0.008116  ( 0.056560 -0.055257  0.043165)
 94:   1465.45   0.003304   16.70  0.000704  (-0.005799  0.022263  0.013204)
 95:   1465.76   0.005220   26.38  0.001111  (-0.002348  0.024956 -0.021980)
 96:   1469.35   0.004870   24.61  0.001034  ( 0.031310  0.003439  0.006489)
 97:   1472.61   0.006305   31.86  0.001336  (-0.026486  0.008769  0.023616)
 98:   1475.37   0.001870    9.45  0.000395  ( 0.002502 -0.014944  0.012880)
 99:   1484.34   0.003825   19.33  0.000804  ( 0.018370  0.013931 -0.016508)
100:   1499.94   0.010143   51.26  0.002110  (-0.007111  0.011365 -0.043937)
101:   1501.09   0.033364  168.61  0.006936  ( 0.072941  0.039511  0.007392)
102:   1541.73   0.032777  165.64  0.006634  ( 0.035559  0.037151 -0.063165)
103:   1622.32   0.042575  215.16  0.008190  (-0.081829  0.031845  0.021901)
104:   1650.71   0.009118   46.08  0.001724  ( 0.003470 -0.037852  0.016702)
105:   1659.50   0.129337  653.62  0.024321  (-0.009358  0.130406  0.085019)
106:   1665.10   0.014910   75.35  0.002794  ( 0.035443  0.013660 -0.036763)
107:   1709.25   0.034017  171.91  0.006211  (-0.074751 -0.024335 -0.005547)
108:   1795.69   0.107204  541.77  0.018630  ( 0.071418  0.065150 -0.096361)
109:   2977.32   0.008226   41.57  0.000862  (-0.017143 -0.012367 -0.020381)
110:   3040.88   0.011923   60.25  0.001224  (-0.010143  0.002180 -0.033405)
111:   3073.95   0.006651   33.61  0.000675  (-0.018996  0.014108 -0.010740)
112:   3092.11   0.002219   11.21  0.000224  ( 0.013942 -0.005143 -0.001755)
113:   3113.52   0.007395   37.37  0.000741  (-0.012280  0.023596  0.005800)
114:   3142.30   0.000055    0.28  0.000005  ( 0.002248  0.000371  0.000490)
115:   3157.61   0.003891   19.66  0.000385  ( 0.004865  0.015376  0.011155)
116:   3168.54   0.003305   16.70  0.000325  ( 0.013605  0.008742 -0.007998)
117:   3186.52   0.000720    3.64  0.000070  (-0.004632 -0.000600 -0.006977)
118:   3188.26   0.002522   12.75  0.000247  (-0.014569  0.004181  0.004142)
119:   3189.60   0.002167   10.95  0.000212  ( 0.010874  0.002369 -0.009391)
120:   3196.50   0.001613    8.15  0.000157  (-0.010265 -0.003627 -0.006238)
121:   3211.49   0.000474    2.40  0.000046  (-0.006306 -0.001288  0.002161)
122:   3211.81   0.000761    3.85  0.000074  ( 0.005688 -0.004654 -0.004464)
123:   3215.12   0.002781   14.05  0.000270  ( 0.010187  0.007199 -0.010693)
124:   3230.67   0.000305    1.54  0.000029  (-0.002774 -0.000044 -0.004665)
125:   3246.72   0.000629    3.18  0.000060  ( 0.000753  0.006658  0.003944)

--------------------------
THERMOCHEMISTRY AT 298.15K
--------------------------

Temperature         ... 298.15 K
Pressure            ... 1.00 atm
Total Mass          ... 348.33 AMU

Throughout the following assumptions are being made:
  (1) The electronic state is orbitally nondegenerate
  (2) There are no thermally accessible electronically excited states
  (3) Hindered rotations indicated by low frequency modes are not
      treated as such but are treated as vibrations and this may
      cause some error
  (4) All equations used are the standard statistical mechanics
      equations for an ideal gas
  (5) All vibrations are strictly harmonic

freq.      22.99  E(vib)   ...       0.56
freq.      47.28  E(vib)   ...       0.53
freq.      57.99  E(vib)   ...       0.51
freq.      67.26  E(vib)   ...       0.50
freq.      71.91  E(vib)   ...       0.50
freq.      89.22  E(vib)   ...       0.47
freq.      89.71  E(vib)   ...       0.47
freq.     103.89  E(vib)   ...       0.46
freq.     115.82  E(vib)   ...       0.44
freq.     118.21  E(vib)   ...       0.44
freq.     144.79  E(vib)   ...       0.41
freq.     151.36  E(vib)   ...       0.40
freq.     183.13  E(vib)   ...       0.37
freq.     195.42  E(vib)   ...       0.36
freq.     206.85  E(vib)   ...       0.35
freq.     228.97  E(vib)   ...       0.32
freq.     242.74  E(vib)   ...       0.31
freq.     246.46  E(vib)   ...       0.31
freq.     281.33  E(vib)   ...       0.28
freq.     289.66  E(vib)   ...       0.27
freq.     300.22  E(vib)   ...       0.26
freq.     318.89  E(vib)   ...       0.25
freq.     368.60  E(vib)   ...       0.21
freq.     369.47  E(vib)   ...       0.21
freq.     375.53  E(vib)   ...       0.21
freq.     436.13  E(vib)   ...       0.17
freq.     444.13  E(vib)   ...       0.17
freq.     479.84  E(vib)   ...       0.15
freq.     489.06  E(vib)   ...       0.15
freq.     550.69  E(vib)   ...       0.12
freq.     553.32  E(vib)   ...       0.12
freq.     571.66  E(vib)   ...       0.11
freq.     576.53  E(vib)   ...       0.11
freq.     589.05  E(vib)   ...       0.10
freq.     609.80  E(vib)   ...       0.10
freq.     643.07  E(vib)   ...       0.09
freq.     654.36  E(vib)   ...       0.08
freq.     667.69  E(vib)   ...       0.08
freq.     711.59  E(vib)   ...       0.07
freq.     723.34  E(vib)   ...       0.07
freq.     754.14  E(vib)   ...       0.06
freq.     767.38  E(vib)   ...       0.06
freq.     770.44  E(vib)   ...       0.05
freq.     781.71  E(vib)   ...       0.05
freq.     798.77  E(vib)   ...       0.05
freq.     835.12  E(vib)   ...       0.04
freq.     849.38  E(vib)   ...       0.04
freq.     869.13  E(vib)   ...       0.04
freq.     873.40  E(vib)   ...       0.04
freq.     889.74  E(vib)   ...       0.04
freq.     930.59  E(vib)   ...       0.03
freq.     946.40  E(vib)   ...       0.03
freq.     959.15  E(vib)   ...       0.03
freq.     990.24  E(vib)   ...       0.02
freq.     990.63  E(vib)   ...       0.02
freq.     995.73  E(vib)   ...       0.02
freq.    1000.67  E(vib)   ...       0.02
freq.    1015.21  E(vib)   ...       0.02
freq.    1023.92  E(vib)   ...       0.02
freq.    1039.26  E(vib)   ...       0.02
freq.    1064.71  E(vib)   ...       0.02
freq.    1072.33  E(vib)   ...       0.02
freq.    1086.37  E(vib)   ...       0.02
freq.    1110.37  E(vib)   ...       0.02
freq.    1148.04  E(vib)   ...       0.01
freq.    1155.61  E(vib)   ...       0.01
freq.    1170.78  E(vib)   ...       0.01
freq.    1172.69  E(vib)   ...       0.01
freq.    1173.64  E(vib)   ...       0.01
freq.    1195.38  E(vib)   ...       0.01
freq.    1206.15  E(vib)   ...       0.01
freq.    1206.70  E(vib)   ...       0.01
freq.    1231.88  E(vib)   ...       0.01
freq.    1238.86  E(vib)   ...       0.01
freq.    1246.65  E(vib)   ...       0.01
freq.    1250.35  E(vib)   ...       0.01
freq.    1265.70  E(vib)   ...       0.01
freq.    1273.69  E(vib)   ...       0.01
freq.    1309.96  E(vib)   ...       0.01
freq.    1323.05  E(vib)   ...       0.01
freq.    1330.00  E(vib)   ...       0.01
freq.    1352.01  E(vib)   ...       0.01
freq.    1361.78  E(vib)   ...       0.01
freq.    1369.72  E(vib)   ...       0.01
freq.    1387.57  E(vib)   ...       0.00
freq.    1402.58  E(vib)   ...       0.00
freq.    1436.20  E(vib)   ...       0.00
freq.    1448.44  E(vib)   ...       0.00
freq.    1465.45  E(vib)   ...       0.00
freq.    1465.76  E(vib)   ...       0.00
freq.    1469.35  E(vib)   ...       0.00
freq.    1472.61  E(vib)   ...       0.00
freq.    1475.37  E(vib)   ...       0.00
freq.    1484.34  E(vib)   ...       0.00
freq.    1499.94  E(vib)   ...       0.00
freq.    1501.09  E(vib)   ...       0.00
freq.    1541.73  E(vib)   ...       0.00
freq.    1622.32  E(vib)   ...       0.00
freq.    1650.71  E(vib)   ...       0.00
freq.    1659.50  E(vib)   ...       0.00
freq.    1665.10  E(vib)   ...       0.00
freq.    1709.25  E(vib)   ...       0.00
freq.    1795.69  E(vib)   ...       0.00
freq.    2977.32  E(vib)   ...       0.00
freq.    3040.88  E(vib)   ...       0.00
freq.    3073.95  E(vib)   ...       0.00
freq.    3092.11  E(vib)   ...       0.00
freq.    3113.52  E(vib)   ...       0.00
freq.    3142.30  E(vib)   ...       0.00
freq.    3157.61  E(vib)   ...       0.00
freq.    3168.54  E(vib)   ...       0.00
freq.    3186.52  E(vib)   ...       0.00
freq.    3188.26  E(vib)   ...       0.00
freq.    3189.60  E(vib)   ...       0.00
freq.    3196.50  E(vib)   ...       0.00
freq.    3211.49  E(vib)   ...       0.00
freq.    3211.81  E(vib)   ...       0.00
freq.    3215.12  E(vib)   ...       0.00
freq.    3230.67  E(vib)   ...       0.00
freq.    3246.72  E(vib)   ...       0.00

------------
INNER ENERGY
------------

The inner energy is: U= E(el) + E(ZPE) + E(vib) + E(rot) + E(trans)
    E(el)   - is the total energy from the electronic structure calculation
              = E(kin-el) + E(nuc-el) + E(el-el) + E(nuc-nuc)
    E(ZPE)  - the the zero temperature vibrational energy from the frequency calculation
    E(vib)  - the the finite temperature correction to E(ZPE) due to population
              of excited vibrational states
    E(rot)  - is the rotational thermal energy
    E(trans)- is the translational thermal energy

Summary of contributions to the inner energy U:
Electronic energy                ...  -1242.54203450 Eh
Zero point energy                ...      0.32710236 Eh     205.26 kcal/mol
Thermal vibrational correction   ...      0.01927887 Eh      12.10 kcal/mol
Thermal rotational correction    ...      0.00141627 Eh       0.89 kcal/mol
Thermal translational correction ...      0.00141627 Eh       0.89 kcal/mol
-----------------------------------------------------------------------
Total thermal energy                  -1242.19282072 Eh

Rotational constants in cm-1:     0.012202     0.007151     0.005735

                             ****ORCA TERMINATED NORMALLY****
TOTAL RUN TIME: 0 days 1 hours 28 minutes 39 seconds 897 msec
