                         Program Version 5.0.4 -  RELEASE  -
|  1> %pal nprocs 24 end
|  2> ! PBE0 D3BJ def2-TZVP TightSCF OPT FREQ TightOpt
|  3> ! CPCM(dmso)
|  4> %scf
|  5> MaxIter 800
|  6> end
|  7>
|  8> %geom
|  9> MaxIter 800
| 10> MaxStep 0.15
| 11> end
| 12>
| 13> *xyz 0 1
| 14> C      -4.06389600     -1.00294200      0.08636200
| 15> C      -3.70486900     -1.95975400     -0.93697400
| 16> C      -2.38657100     -2.18257900     -1.16600600
| 17> N      -1.41037800     -1.57928600     -0.42851100
| 18> C      -1.67317000     -0.49782200      0.50353600
| 19> C      -3.12955700     -0.32409100      0.78476300
| 20> C      -0.04180800     -1.49237500     -0.84220400
| 21> C       0.87058100     -2.23772400      0.12302800
| 22> O       0.51443900     -2.78011000      1.13878000
| 23> O       2.10944800     -2.27209300     -0.34877900
| 24> C       3.08868900     -2.92207500      0.45182600
| 25> H      -5.12198800     -0.84078100      0.31209800
| 26> H      -2.02595200     -2.87658700     -1.92977100
| 27> H      -1.10903900     -0.68081500      1.43536200
| 28> H      -3.40507700      0.38663100      1.56640700
| 29> H       0.09850700     -1.97198600     -1.82163900
| 30> H       4.02994600     -2.85870900     -0.10490500
| 31> H       2.81507600     -3.97298600      0.62116700
| 32> C      -0.89150500      0.71118000     -0.13481600
| 33> C       0.20537200      0.05912800     -0.98907600
| 34> C       1.59072800      0.58997100     -0.74898400
| 35> C       2.36509300      1.05687600     -1.80922900
| 36> C       3.65673000      1.54900200     -1.60664800
| 37> C       4.18043500      1.57634600     -0.31776400
| 38> C       3.42681000      1.11750800      0.76573600
| 39> C       2.13917400      0.62371600      0.54923100
| 40> O       1.33951400      0.13992800      1.52234200
| 41> C       1.79857400      0.10345000      2.85384000
| 42> N      -1.84934600      1.49805300     -0.95699600
| 43> O      -2.10677800      1.12862100     -2.08312900
| 44> H      -0.05255400      0.27568800     -2.03292100
| 45> H       1.94167800      1.03145400     -2.81728300
| 46> H       4.24540600      1.90926500     -2.45305800
| 47> H       5.18874500      1.95927300     -0.14082300
| 48> H       3.84983400      1.14289400      1.77044400
| 49> H       2.00365700      1.11763100      3.23316600
| 50> H       2.70897900     -0.51039500      2.94797900
| 51> H       0.99433100     -0.35078200      3.44493200
| 52> O      -2.39827900      2.42596200     -0.40161900
| 53> H       3.18987800     -2.41453900      1.42168400
| 54> H      -4.46239400     -2.49163900     -1.51141400
| 55> H      -0.53190700      1.40249200      0.63101200
| 56> *
| 57>
| 58>                          ****END OF INPUT****
 Total Charge           Charge          ....    0
 Multiplicity           Mult            ....    1
 Number of Electrons    NEL             ....  174
Dispersion correction           -0.054327833
FINAL SINGLE POINT ENERGY     -1143.355181628670
Dispersion correction            ... done
Dispersion correction           -0.053818343
FINAL SINGLE POINT ENERGY     -1143.356409620786
Dispersion correction            ... done
Dispersion correction           -0.054671520
FINAL SINGLE POINT ENERGY     -1143.355460234284
Dispersion correction            ... done
FINAL SINGLE POINT ENERGY     -1143.356840063838
FINAL SINGLE POINT ENERGY     -1143.356821421977
FINAL SINGLE POINT ENERGY     -1143.356886019689
FINAL SINGLE POINT ENERGY     -1143.356879493059
FINAL SINGLE POINT ENERGY     -1143.356914136149
FINAL SINGLE POINT ENERGY     -1143.356920494982
FINAL SINGLE POINT ENERGY     -1143.356925088331
FINAL SINGLE POINT ENERGY     -1143.356921554358
FINAL SINGLE POINT ENERGY     -1143.356912281426
FINAL SINGLE POINT ENERGY     -1143.356903667318
Dispersion correction           -0.053975440
FINAL SINGLE POINT ENERGY     -1143.356900072633
Dispersion correction            ... done
Dispersion correction           -0.053976388
FINAL SINGLE POINT ENERGY     -1143.356898841976
Dispersion correction            ... done
                    ***********************HURRAY********************

CARTESIAN COORDINATES (ANGSTROEM)
---------------------------------
  C     -4.085697   -1.018454   -0.057823
  C     -3.682032   -1.951011   -1.079347
  C     -2.364033   -2.182623   -1.241974
  N     -1.423568   -1.614844   -0.438225
  C     -1.725707   -0.549033    0.497858
  C     -3.189487   -0.364163    0.695829
  C     -0.044190   -1.520689   -0.805924
  C      0.842605   -2.274248    0.173953
  O      0.460659   -2.816331    1.179384
  O      2.088165   -2.320428   -0.275379
  C      3.037767   -2.995252    0.553597
  H     -5.144103   -0.851400    0.112693
  H     -1.973176   -2.853986   -1.997911
  H     -1.227053   -0.762976    1.450934
  H     -3.498226    0.329668    1.468096
  H      0.123818   -1.982834   -1.780249
  H      3.993124   -2.899559    0.044482
  H      2.766355   -4.045478    0.661547
  C     -0.884522    0.667160   -0.049352
  C      0.193092    0.029188   -0.932751
  C      1.574534    0.575422   -0.730519
  C      2.292012    1.057422   -1.815178
  C      3.569747    1.583170   -1.666668
  C      4.137560    1.632366   -0.405114
  C      3.442035    1.159270    0.701553
  C      2.168826    0.628941    0.538542
  O      1.426577    0.126493    1.549349
  C      1.950504    0.166550    2.863370
  N     -1.779333    1.571422   -0.813876
  O     -2.092137    1.277933   -1.948697
  H     -0.089895    0.247432   -1.962457
  H      1.833740    1.018121   -2.798143
  H      4.110014    1.953126   -2.529744
  H      5.131919    2.042213   -0.268489
  H      3.898162    1.201939    1.681481
  H      2.129831    1.196952    3.182085
  H      2.879815   -0.404909    2.934958
  H      1.194475   -0.287019    3.500722
  O     -2.228624    2.526392   -0.211378
  H      3.081894   -2.525338    1.535978
  H     -4.406124   -2.457449   -1.700641
  H     -0.502769    1.271843    0.764573

 Multiplicity           Mult            ....    1
 Number of Electrons    NEL             ....  174
 Basis Dimension        Dim             ....  852

ORBITAL ENERGIES
----------------

  NO   OCC          E(Eh)            E(eV)
   0   2.0000     -19.263386      -524.1834
   1   2.0000     -19.249068      -523.7938
   2   2.0000     -19.248856      -523.7880
   3   2.0000     -19.247398      -523.7483
   4   2.0000     -19.202579      -522.5287
   5   2.0000     -14.621919      -397.8826
   6   2.0000     -14.424343      -392.5063
   7   2.0000     -10.358493      -281.8689
   8   2.0000     -10.291369      -280.0424
   9   2.0000     -10.286984      -279.9231
  10   2.0000     -10.286329      -279.9052
  11   2.0000     -10.285867      -279.8927
  12   2.0000     -10.270507      -279.4747
  13   2.0000     -10.268135      -279.4102
  14   2.0000     -10.265215      -279.3307
  15   2.0000     -10.261302      -279.2242
  16   2.0000     -10.240773      -278.6656
  17   2.0000     -10.230469      -278.3852
  18   2.0000     -10.230298      -278.3805
  19   2.0000     -10.230160      -278.3768
  20   2.0000     -10.226602      -278.2800
  21   2.0000     -10.224048      -278.2105
  22   2.0000     -10.221775      -278.1486
  23   2.0000     -10.207450      -277.7588
  24   2.0000      -1.279841       -34.8262
  25   2.0000      -1.153758       -31.3954
  26   2.0000      -1.111872       -30.2556
  27   2.0000      -1.099897       -29.9297
  28   2.0000      -1.061522       -28.8855
  29   2.0000      -1.019892       -27.7527
  30   2.0000      -0.899092       -24.4655
  31   2.0000      -0.874282       -23.7904
  32   2.0000      -0.853279       -23.2189
  33   2.0000      -0.810003       -22.0413
  34   2.0000      -0.790125       -21.5004
  35   2.0000      -0.782106       -21.2822
  36   2.0000      -0.777563       -21.1586
  37   2.0000      -0.746921       -20.3248
  38   2.0000      -0.721700       -19.6384
  39   2.0000      -0.704668       -19.1750
  40   2.0000      -0.670479       -18.2447
  41   2.0000      -0.647100       -17.6085
  42   2.0000      -0.631120       -17.1736
  43   2.0000      -0.622997       -16.9526
  44   2.0000      -0.606964       -16.5163
  45   2.0000      -0.594491       -16.1769
  46   2.0000      -0.578772       -15.7492
  47   2.0000      -0.570679       -15.5290
  48   2.0000      -0.559719       -15.2307
  49   2.0000      -0.548552       -14.9269
  50   2.0000      -0.545208       -14.8359
  51   2.0000      -0.533984       -14.5304
  52   2.0000      -0.521451       -14.1894
  53   2.0000      -0.517432       -14.0800
  54   2.0000      -0.504770       -13.7355
  55   2.0000      -0.501390       -13.6435
  56   2.0000      -0.491969       -13.3872
  57   2.0000      -0.485768       -13.2184
  58   2.0000      -0.483519       -13.1572
  59   2.0000      -0.472452       -12.8561
  60   2.0000      -0.461316       -12.5530
  61   2.0000      -0.454943       -12.3796
  62   2.0000      -0.442702       -12.0465
  63   2.0000      -0.439252       -11.9526
  64   2.0000      -0.437627       -11.9084
  65   2.0000      -0.430777       -11.7220
  66   2.0000      -0.417074       -11.3491
  67   2.0000      -0.403880       -10.9901
  68   2.0000      -0.398115       -10.8333
  69   2.0000      -0.388680       -10.5765
  70   2.0000      -0.382416       -10.4061
  71   2.0000      -0.379220       -10.3191
  72   2.0000      -0.378386       -10.2964
  73   2.0000      -0.369854       -10.0642
  74   2.0000      -0.363500        -9.8913
  75   2.0000      -0.358090        -9.7441
  76   2.0000      -0.345208        -9.3936
  77   2.0000      -0.342558        -9.3215
  78   2.0000      -0.341576        -9.2948
  79   2.0000      -0.331777        -9.0281
  80   2.0000      -0.329252        -8.9594
  81   2.0000      -0.321307        -8.7432
  82   2.0000      -0.310958        -8.4616
  83   2.0000      -0.298239        -8.1155
  84   2.0000      -0.271601        -7.3906
  85   2.0000      -0.241984        -6.5847
  86   2.0000      -0.200952        -5.4682
  87   0.0000      -0.070984        -1.9316
  88   0.0000      -0.026542        -0.7222
  89   0.0000      -0.015932        -0.4335
  90   0.0000      -0.000099        -0.0027
  91   0.0000       0.004648         0.1265

MULLIKEN ATOMIC CHARGES
-----------------------
   0 C :   -0.153505
   1 C :   -0.234248
   2 C :   -0.138486
   3 N :    0.011218
   4 C :    0.028139
   5 C :   -0.274022
   6 C :   -0.013217
   7 C :    0.271575
   8 O :   -0.386364
   9 O :   -0.219479
  10 C :   -0.256785
  11 H :    0.150208
  12 H :    0.169401
  13 H :    0.127392
  14 H :    0.152968
  15 H :    0.157240
  16 H :    0.161728
  17 H :    0.157443
  18 C :   -0.135792
  19 C :    0.099826
  20 C :    0.017540
  21 C :   -0.251260
  22 C :   -0.191639
  23 C :   -0.149622
  24 C :   -0.303647
  25 C :    0.292848
  26 O :   -0.261761
  27 C :   -0.294682
  28 N :    0.490884
  29 O :   -0.354684
  30 H :    0.132583
  31 H :    0.147231
  32 H :    0.146805
  33 H :    0.151613
  34 H :    0.165477
  35 H :    0.158929
  36 H :    0.155498
  37 H :    0.163785
  38 O :   -0.356648
  39 H :    0.152340
  40 H :    0.156758
  41 H :    0.156411
Sum of atomic charges:   -0.0000000

LOEWDIN ATOMIC CHARGES
----------------------
   0 C :   -0.162302
   1 C :   -0.226695
   2 C :   -0.181377
   3 N :    0.258784
   4 C :   -0.202201
   5 C :   -0.161180
   6 C :   -0.178373
   7 C :   -0.481377
   8 O :    0.086757
   9 O :    0.277778
  10 C :   -0.302844
  11 H :    0.155260
  12 H :    0.159869
  13 H :    0.170764
  14 H :    0.152766
  15 H :    0.184190
  16 H :    0.123080
  17 H :    0.120125
  18 C :   -0.168381
  19 C :   -0.140403
  20 C :   -0.113632
  21 C :   -0.110174
  22 C :   -0.165591
  23 C :   -0.145618
  24 C :   -0.138846
  25 C :   -0.235916
  26 O :    0.266168
  27 C :   -0.325723
  28 N :   -0.048327
  29 O :   -0.034568
  30 H :    0.185783
  31 H :    0.159660
  32 H :    0.152151
  33 H :    0.154580
  34 H :    0.161040
  35 H :    0.119846
  36 H :    0.117488
  37 H :    0.122790
  38 O :   -0.044166
  39 H :    0.118899
  40 H :    0.149923
  41 H :    0.169995

  Mayer bond orders larger than 0.100000
B(  0-C ,  1-C ) :   1.0948 B(  0-C ,  5-C ) :   1.8587 B(  0-C , 11-H ) :   0.9588
B(  1-C ,  2-C ) :   1.6834 B(  1-C , 40-H ) :   0.9672 B(  2-C ,  3-N ) :   1.2125
B(  2-C , 12-H ) :   0.9436 B(  3-N ,  4-C ) :   0.9642 B(  3-N ,  6-C ) :   0.9385
B(  4-C ,  5-C ) :   0.9492 B(  4-C ,  6-C ) :   0.1129 B(  4-C , 13-H ) :   0.9163
B(  4-C , 18-C ) :   0.9886 B(  5-C , 14-H ) :   0.9626 B(  6-C ,  7-C ) :   0.9735
B(  6-C , 15-H ) :   0.9017 B(  6-C , 19-C ) :   0.9877 B(  7-C ,  8-O ) :   2.0033
B(  7-C ,  9-O ) :   1.2385 B(  9-O , 10-C ) :   0.8861 B( 10-C , 16-H ) :   0.9646
B( 10-C , 17-H ) :   0.9636 B( 10-C , 39-H ) :   0.9705 B( 18-C , 19-C ) :   0.9576
B( 18-C , 28-N ) :   0.9057 B( 18-C , 41-H ) :   0.8995 B( 19-C , 20-C ) :   0.8246
B( 19-C , 30-H ) :   0.9195 B( 20-C , 21-C ) :   1.3831 B( 20-C , 25-C ) :   1.2393
B( 21-C , 22-C ) :   1.3917 B( 21-C , 31-H ) :   0.9821 B( 22-C , 23-C ) :   1.4060
B( 22-C , 32-H ) :   0.9825 B( 23-C , 24-C ) :   1.3872 B( 23-C , 33-H ) :   0.9686
B( 24-C , 25-C ) :   1.3788 B( 24-C , 34-H ) :   0.9615 B( 25-C , 26-O ) :   1.0668
B( 26-O , 27-C ) :   0.9292 B( 27-C , 35-H ) :   0.9609 B( 27-C , 36-H ) :   0.9605
B( 27-C , 37-H ) :   0.9645 B( 28-N , 29-O ) :   1.5951 B( 28-N , 38-O ) :   1.5820
B( 29-O , 38-O ) :   0.1910

Dispersion correction           -0.053977700
FINAL SINGLE POINT ENERGY     -1143.356898713364

DIPOLE MOMENT
-------------
                                X             Y             Z
Electronic contribution:     -7.84346       3.47500      -5.51623
Nuclear contribution   :     10.77956      -4.38553       6.17199
                        -----------------------------------------
Total Dipole Moment    :      2.93610      -0.91054       0.65576
                        -----------------------------------------
Magnitude (a.u.)       :      3.14321
Magnitude (Debye)      :      7.98941

Dispersion correction in the Hessian             ... done   (      0.7 sec)

VIBRATIONAL FREQUENCIES
-----------------------

Scaling factor for frequencies =  1.000000000  (already applied!)

   0:         0.00 cm**-1
   1:         0.00 cm**-1
   2:         0.00 cm**-1
   3:         0.00 cm**-1
   4:         0.00 cm**-1
   5:         0.00 cm**-1
   6:        15.90 cm**-1
   7:        43.33 cm**-1
   8:        53.11 cm**-1
   9:        65.35 cm**-1
  10:        70.57 cm**-1
  11:        74.08 cm**-1
  12:        82.66 cm**-1
  13:       100.41 cm**-1
  14:       111.75 cm**-1
  15:       116.30 cm**-1
  16:       141.71 cm**-1
  17:       147.09 cm**-1
  18:       187.74 cm**-1
  19:       208.01 cm**-1
  20:       214.19 cm**-1
  21:       230.59 cm**-1
  22:       252.13 cm**-1
  23:       280.69 cm**-1
  24:       289.51 cm**-1
  25:       305.92 cm**-1
  26:       308.82 cm**-1
  27:       343.10 cm**-1
  28:       372.64 cm**-1
  29:       417.95 cm**-1
  30:       445.36 cm**-1
  31:       474.70 cm**-1
  32:       504.98 cm**-1
  33:       540.79 cm**-1
  34:       564.19 cm**-1
  35:       569.44 cm**-1
  36:       585.11 cm**-1
  37:       598.46 cm**-1
  38:       613.03 cm**-1
  39:       647.47 cm**-1
  40:       668.01 cm**-1
  41:       678.31 cm**-1
  42:       710.47 cm**-1
  43:       722.57 cm**-1
  44:       760.59 cm**-1
  45:       763.23 cm**-1
  46:       774.66 cm**-1
  47:       794.40 cm**-1
  48:       816.80 cm**-1
  49:       839.99 cm**-1
  50:       867.02 cm**-1
  51:       872.29 cm**-1
  52:       880.94 cm**-1
  53:       883.36 cm**-1
  54:       927.45 cm**-1
  55:       947.15 cm**-1
  56:       956.63 cm**-1
  57:       971.10 cm**-1
  58:       988.70 cm**-1
  59:       991.36 cm**-1
  60:       998.62 cm**-1
  61:      1009.17 cm**-1
  62:      1039.26 cm**-1
  63:      1042.40 cm**-1
  64:      1051.75 cm**-1
  65:      1070.80 cm**-1
  66:      1084.87 cm**-1
  67:      1104.66 cm**-1
  68:      1145.21 cm**-1
  69:      1151.18 cm**-1
  70:      1169.72 cm**-1
  71:      1172.85 cm**-1
  72:      1174.00 cm**-1
  73:      1190.58 cm**-1
  74:      1205.54 cm**-1
  75:      1206.35 cm**-1
  76:      1216.47 cm**-1
  77:      1221.18 cm**-1
  78:      1233.80 cm**-1
  79:      1246.74 cm**-1
  80:      1257.28 cm**-1
  81:      1273.05 cm**-1
  82:      1292.66 cm**-1
  83:      1306.32 cm**-1
  84:      1324.03 cm**-1
  85:      1333.03 cm**-1
  86:      1352.84 cm**-1
  87:      1366.54 cm**-1
  88:      1370.50 cm**-1
  89:      1389.51 cm**-1
  90:      1409.70 cm**-1
  91:      1438.91 cm**-1
  92:      1448.56 cm**-1
  93:      1465.00 cm**-1
  94:      1465.95 cm**-1
  95:      1469.20 cm**-1
  96:      1473.13 cm**-1
  97:      1475.43 cm**-1
  98:      1486.73 cm**-1
  99:      1499.58 cm**-1
 100:      1500.22 cm**-1
 101:      1540.65 cm**-1
 102:      1620.51 cm**-1
 103:      1631.48 cm**-1
 104:      1650.45 cm**-1
 105:      1664.91 cm**-1
 106:      1706.50 cm**-1
 107:      1794.73 cm**-1
 108:      3026.44 cm**-1
 109:      3040.47 cm**-1
 110:      3073.66 cm**-1
 111:      3111.37 cm**-1
 112:      3112.90 cm**-1
 113:      3123.49 cm**-1
 114:      3156.91 cm**-1
 115:      3168.05 cm**-1
 116:      3185.31 cm**-1
 117:      3187.03 cm**-1
 118:      3189.44 cm**-1
 119:      3196.07 cm**-1
 120:      3203.76 cm**-1
 121:      3207.28 cm**-1
 122:      3213.81 cm**-1
 123:      3214.03 cm**-1
 124:      3231.02 cm**-1
 125:      3244.07 cm**-1

IR SPECTRUM
-----------

 Mode   freq       eps      Int      T**2         TX        TY        TZ
       cm**-1   L/(mol*cm) km/mol    a.u.
----------------------------------------------------------------------------
  6:     15.90   0.000100    0.50  0.001955  ( 0.009537  0.032047  0.028933)
  7:     43.33   0.000064    0.32  0.000458  (-0.002860 -0.011512  0.017810)
  8:     53.11   0.000253    1.28  0.001485  ( 0.006039 -0.037667 -0.005420)
  9:     65.35   0.000676    3.42  0.003227  (-0.035517  0.042766 -0.011698)
 10:     70.57   0.000474    2.40  0.002096  (-0.023248 -0.035873 -0.016401)
 11:     74.08   0.000224    1.13  0.000942  ( 0.006346 -0.023721 -0.018421)
 12:     82.66   0.000476    2.40  0.001795  (-0.040155  0.011944 -0.006359)
 13:    100.41   0.000592    2.99  0.001841  (-0.000251  0.041941  0.009033)
 14:    111.75   0.001086    5.49  0.003034  ( 0.016106 -0.051104 -0.012754)
 15:    116.30   0.000014    0.07  0.000038  (-0.005874  0.000818  0.001784)
 16:    141.71   0.000831    4.20  0.001830  (-0.026567 -0.032461  0.008405)
 17:    147.09   0.000042    0.21  0.000089  (-0.005048 -0.001235  0.007876)
 18:    187.74   0.000303    1.53  0.000503  ( 0.011685 -0.018716 -0.004029)
 19:    208.01   0.001112    5.62  0.001668  (-0.000669  0.037774  0.015530)
 20:    214.19   0.001364    6.89  0.001988  (-0.012037  0.026579  0.033711)
 21:    230.59   0.000802    4.05  0.001085  ( 0.031062 -0.000541 -0.010953)
 22:    252.13   0.000444    2.24  0.000550  ( 0.011745 -0.017815 -0.009706)
 23:    280.69   0.003895   19.69  0.004331  ( 0.064580 -0.006039 -0.011121)
 24:    289.51   0.000718    3.63  0.000773  (-0.023267 -0.011691  0.009769)
 25:    305.92   0.000674    3.41  0.000688  ( 0.017033  0.018713 -0.006877)
 26:    308.82   0.000307    1.55  0.000310  ( 0.016565 -0.005172  0.002990)
 27:    343.10   0.000913    4.61  0.000830  ( 0.023392 -0.010789  0.012902)
 28:    372.64   0.001738    8.78  0.001455  ( 0.037456 -0.004829  0.005371)
 29:    417.95   0.008879   44.87  0.006629  (-0.009914  0.075936 -0.027656)
 30:    445.36   0.000210    1.06  0.000147  (-0.007053  0.000426 -0.009854)
 31:    474.70   0.000030    0.15  0.000020  (-0.004022 -0.001715  0.000766)
 32:    504.98   0.001915    9.68  0.001184  (-0.001022 -0.034075 -0.004644)
 33:    540.79   0.004229   21.37  0.002440  (-0.009969  0.039452  0.028004)
 34:    564.19   0.004279   21.62  0.002367  ( 0.046164  0.010000 -0.011638)
 35:    569.44   0.003464   17.50  0.001898  ( 0.001024 -0.020819  0.038257)
 36:    585.11   0.000300    1.52  0.000160  ( 0.005226  0.011252 -0.002519)
 37:    598.46   0.005941   30.02  0.003098  ( 0.034864 -0.041473 -0.012734)
 38:    613.03   0.002491   12.59  0.001268  (-0.027490  0.012450 -0.018906)
 39:    647.47   0.001388    7.02  0.000669  (-0.010156 -0.023635 -0.002732)
 40:    668.01   0.005027   25.40  0.002348  ( 0.012458 -0.037780  0.027670)
 41:    678.31   0.008445   42.68  0.003885  ( 0.037857 -0.027877  0.040927)
 42:    710.47   0.009700   49.02  0.004261  ( 0.019269  0.045433 -0.042723)
 43:    722.57   0.007194   36.36  0.003107  ( 0.006075  0.038728 -0.039628)
 44:    760.59   0.000896    4.53  0.000368  ( 0.009072 -0.014040  0.009392)
 45:    763.23   0.010686   54.00  0.004369  (-0.020980  0.057006  0.026067)
 46:    774.66   0.014267   72.10  0.005747  (-0.028745  0.070145 -0.000856)
 47:    794.40   0.000993    5.02  0.000390  (-0.018162  0.001614  0.007591)
 48:    816.80   0.003584   18.11  0.001369  ( 0.010137  0.030166 -0.018878)
 49:    839.99   0.029233  147.73  0.010860  (-0.020569 -0.092813  0.042696)
 50:    867.02   0.003138   15.86  0.001129  ( 0.033082  0.005249 -0.002724)
 51:    872.29   0.001624    8.21  0.000581  ( 0.019902  0.011844 -0.006682)
 52:    880.94   0.005729   28.95  0.002029  ( 0.033203 -0.012287 -0.027857)
 53:    883.36   0.003306   16.70  0.001168  (-0.026610 -0.021378 -0.001623)
 54:    927.45   0.001278    6.46  0.000430  ( 0.004282  0.018936  0.007280)
 55:    947.15   0.001167    5.90  0.000385  (-0.018236  0.007203  0.000398)
 56:    956.63   0.000161    0.81  0.000053  ( 0.003152 -0.006286 -0.001761)
 57:    971.10   0.022501  113.71  0.007231  (-0.007116  0.083835 -0.012320)
 58:    988.70   0.000207    1.05  0.000065  (-0.000309  0.006745 -0.004452)
 59:    991.36   0.000576    2.91  0.000181  ( 0.001190 -0.009481  0.009494)
 60:    998.62   0.000264    1.33  0.000082  (-0.007354  0.002840 -0.004494)
 61:   1009.17   0.002843   14.37  0.000879  ( 0.018252  0.006264  0.022512)
 62:   1039.26   0.007558   38.20  0.002270  ( 0.024540 -0.040700 -0.003298)
 63:   1042.40   0.005354   27.06  0.001603  ( 0.033064 -0.022554 -0.000905)
 64:   1051.75   0.007087   35.81  0.002103  ( 0.020101 -0.020444  0.035788)
 65:   1070.80   0.008914   45.05  0.002598  ( 0.029938  0.008898  0.040279)
 66:   1084.87   0.010231   51.70  0.002943  ( 0.008364  0.009621 -0.052731)
 67:   1104.66   0.001756    8.87  0.000496  ( 0.007078  0.016351  0.013366)
 68:   1145.21   0.013821   69.85  0.003766  (-0.018981 -0.005663 -0.058085)
 69:   1151.18   0.005053   25.53  0.001370  ( 0.012634 -0.033068  0.010798)
 70:   1169.72   0.000346    1.75  0.000092  (-0.001724 -0.007685 -0.005506)
 71:   1172.85   0.000109    0.55  0.000029  (-0.001588  0.004386  0.002703)
 72:   1174.00   0.001079    5.45  0.000287  ( 0.006634 -0.001241  0.015534)
 73:   1190.58   0.003961   20.02  0.001038  (-0.015443  0.020164 -0.019831)
 74:   1205.54   0.004137   20.90  0.001071  (-0.030291  0.012322  0.001190)
 75:   1206.35   0.003437   17.37  0.000889  (-0.019548  0.000502 -0.022508)
 76:   1216.47   0.003241   16.38  0.000831  (-0.009535 -0.020261  0.018167)
 77:   1221.18   0.013329   67.36  0.003406  ( 0.043901  0.038211 -0.004344)
 78:   1233.80   0.004720   23.85  0.001194  (-0.005112 -0.030751  0.014905)
 79:   1246.74   0.040499  204.67  0.010137  ( 0.096018 -0.026984 -0.013767)
 80:   1257.28   0.085140  430.26  0.021132  ( 0.137704 -0.046405 -0.004045)
 81:   1273.05   0.012314   62.23  0.003019  ( 0.013353 -0.020875  0.049035)
 82:   1292.66   0.021446  108.38  0.005177  (-0.013717 -0.019002  0.068030)
 83:   1306.32   0.028220  142.61  0.006741  (-0.051284 -0.027373  0.057982)
 84:   1324.03   0.017997   90.95  0.004242  (-0.025329  0.021818 -0.055895)
 85:   1333.03   0.016812   84.96  0.003936  (-0.056454 -0.025606 -0.009643)
 86:   1352.84   0.007750   39.17  0.001788  ( 0.040752  0.008409 -0.007505)
 87:   1366.54   0.018339   92.68  0.004188  ( 0.062699 -0.014750 -0.006264)
 88:   1370.50   0.007758   39.20  0.001766  ( 0.031087 -0.028275 -0.000772)
 89:   1389.51   0.009726   49.15  0.002184  (-0.011725 -0.016942 -0.041950)
 90:   1409.70   0.003991   20.17  0.000883  (-0.012813 -0.001829 -0.026757)
 91:   1438.91   0.015815   79.92  0.003430  (-0.011342 -0.057322  0.003919)
 92:   1448.56   0.044884  226.83  0.009669  (-0.058751  0.072251 -0.031584)
 93:   1465.00   0.003126   15.80  0.000666  (-0.006747 -0.021210 -0.013061)
 94:   1465.95   0.005199   26.27  0.001107  (-0.000434 -0.021981  0.024968)
 95:   1469.20   0.007199   36.38  0.001529  ( 0.038423 -0.007112  0.001464)
 96:   1473.13   0.004042   20.43  0.000856  (-0.017467  0.016908  0.016286)
 97:   1475.43   0.002739   13.84  0.000579  (-0.005491 -0.013781  0.018955)
 98:   1486.73   0.003252   16.44  0.000683  ( 0.016112  0.009760 -0.018106)
 99:   1499.58   0.016997   85.89  0.003537  (-0.033761 -0.000330 -0.048960)
100:   1500.22   0.022321  112.80  0.004643  ( 0.060762  0.030093 -0.006739)
101:   1540.65   0.030907  156.19  0.006260  (-0.035172 -0.027588  0.065285)
102:   1620.51   0.041566  210.06  0.008004  (-0.083063  0.028923  0.016381)
103:   1631.48   0.118991  601.33  0.022760  ( 0.021693 -0.090657 -0.118621)
104:   1650.45   0.009960   50.33  0.001883  (-0.001431  0.000069  0.043373)
105:   1664.91   0.010246   51.78  0.001920  (-0.026394 -0.018575  0.029644)
106:   1706.50   0.034020  171.92  0.006221  (-0.074589 -0.020907 -0.014854)
107:   1794.73   0.106285  537.12  0.018481  ( 0.076693  0.058543 -0.095768)
108:   3026.44   0.005514   27.86  0.000569  ( 0.011432  0.004761  0.020376)
109:   3040.47   0.011679   59.02  0.001199  ( 0.011339  0.000171  0.032712)
110:   3073.66   0.006542   33.06  0.000664  ( 0.018356 -0.013197  0.012373)
111:   3111.37   0.000948    4.79  0.000095  (-0.009191  0.003084  0.001051)
112:   3112.90   0.007333   37.06  0.000735  ( 0.011611 -0.024236 -0.003596)
113:   3123.49   0.001006    5.08  0.000101  (-0.008492  0.005315 -0.000418)
114:   3156.91   0.003950   19.96  0.000390  ( 0.004170  0.016344  0.010292)
115:   3168.05   0.003413   17.25  0.000336  (-0.013466 -0.007682  0.009791)
116:   3185.31   0.000985    4.98  0.000097  (-0.005840 -0.001548 -0.007748)
117:   3187.03   0.002897   14.64  0.000284  ( 0.015878 -0.003573 -0.004335)
118:   3189.44   0.002223   11.23  0.000217  (-0.011441 -0.001958  0.009097)
119:   3196.07   0.001607    8.12  0.000157  ( 0.010142  0.003575  0.006420)
120:   3203.76   0.000106    0.54  0.000010  (-0.002220 -0.001049 -0.002079)
121:   3207.28   0.000300    1.51  0.000029  ( 0.002245  0.004561  0.001817)
122:   3213.81   0.003430   17.33  0.000333  ( 0.011356  0.006121 -0.012907)
123:   3214.03   0.000908    4.59  0.000088  (-0.007188  0.003546  0.004893)
124:   3231.02   0.000378    1.91  0.000037  ( 0.003375  0.000452  0.004992)
125:   3244.07   0.000741    3.75  0.000071  ( 0.001360  0.005854  0.005931)

--------------------------
THERMOCHEMISTRY AT 298.15K
--------------------------

Temperature         ... 298.15 K
Pressure            ... 1.00 atm
Total Mass          ... 330.34 AMU

Throughout the following assumptions are being made:
  (1) The electronic state is orbitally nondegenerate
  (2) There are no thermally accessible electronically excited states
  (3) Hindered rotations indicated by low frequency modes are not
      treated as such but are treated as vibrations and this may
      cause some error
  (4) All equations used are the standard statistical mechanics
      equations for an ideal gas
  (5) All vibrations are strictly harmonic

freq.      15.90  E(vib)   ...       0.57
freq.      43.33  E(vib)   ...       0.53
freq.      53.11  E(vib)   ...       0.52
freq.      65.35  E(vib)   ...       0.50
freq.      70.57  E(vib)   ...       0.50
freq.      74.08  E(vib)   ...       0.49
freq.      82.66  E(vib)   ...       0.48
freq.     100.41  E(vib)   ...       0.46
freq.     111.75  E(vib)   ...       0.45
freq.     116.30  E(vib)   ...       0.44
freq.     141.71  E(vib)   ...       0.41
freq.     147.09  E(vib)   ...       0.41
freq.     187.74  E(vib)   ...       0.36
freq.     208.01  E(vib)   ...       0.34
freq.     214.19  E(vib)   ...       0.34
freq.     230.59  E(vib)   ...       0.32
freq.     252.13  E(vib)   ...       0.30
freq.     280.69  E(vib)   ...       0.28
freq.     289.51  E(vib)   ...       0.27
freq.     305.92  E(vib)   ...       0.26
freq.     308.82  E(vib)   ...       0.26
freq.     343.10  E(vib)   ...       0.23
freq.     372.64  E(vib)   ...       0.21
freq.     417.95  E(vib)   ...       0.18
freq.     445.36  E(vib)   ...       0.17
freq.     474.70  E(vib)   ...       0.15
freq.     504.98  E(vib)   ...       0.14
freq.     540.79  E(vib)   ...       0.12
freq.     564.19  E(vib)   ...       0.11
freq.     569.44  E(vib)   ...       0.11
freq.     585.11  E(vib)   ...       0.11
freq.     598.46  E(vib)   ...       0.10
freq.     613.03  E(vib)   ...       0.10
freq.     647.47  E(vib)   ...       0.09
freq.     668.01  E(vib)   ...       0.08
freq.     678.31  E(vib)   ...       0.08
freq.     710.47  E(vib)   ...       0.07
freq.     722.57  E(vib)   ...       0.07
freq.     760.59  E(vib)   ...       0.06
freq.     763.23  E(vib)   ...       0.06
freq.     774.66  E(vib)   ...       0.05
freq.     794.40  E(vib)   ...       0.05
freq.     816.80  E(vib)   ...       0.05
freq.     839.99  E(vib)   ...       0.04
freq.     867.02  E(vib)   ...       0.04
freq.     872.29  E(vib)   ...       0.04
freq.     880.94  E(vib)   ...       0.04
freq.     883.36  E(vib)   ...       0.04
freq.     927.45  E(vib)   ...       0.03
freq.     947.15  E(vib)   ...       0.03
freq.     956.63  E(vib)   ...       0.03
freq.     971.10  E(vib)   ...       0.03
freq.     988.70  E(vib)   ...       0.02
freq.     991.36  E(vib)   ...       0.02
freq.     998.62  E(vib)   ...       0.02
freq.    1009.17  E(vib)   ...       0.02
freq.    1039.26  E(vib)   ...       0.02
freq.    1042.40  E(vib)   ...       0.02
freq.    1051.75  E(vib)   ...       0.02
freq.    1070.80  E(vib)   ...       0.02
freq.    1084.87  E(vib)   ...       0.02
freq.    1104.66  E(vib)   ...       0.02
freq.    1145.21  E(vib)   ...       0.01
freq.    1151.18  E(vib)   ...       0.01
freq.    1169.72  E(vib)   ...       0.01
freq.    1172.85  E(vib)   ...       0.01
freq.    1174.00  E(vib)   ...       0.01
freq.    1190.58  E(vib)   ...       0.01
freq.    1205.54  E(vib)   ...       0.01
freq.    1206.35  E(vib)   ...       0.01
freq.    1216.47  E(vib)   ...       0.01
freq.    1221.18  E(vib)   ...       0.01
freq.    1233.80  E(vib)   ...       0.01
freq.    1246.74  E(vib)   ...       0.01
freq.    1257.28  E(vib)   ...       0.01
freq.    1273.05  E(vib)   ...       0.01
freq.    1292.66  E(vib)   ...       0.01
freq.    1306.32  E(vib)   ...       0.01
freq.    1324.03  E(vib)   ...       0.01
freq.    1333.03  E(vib)   ...       0.01
freq.    1352.84  E(vib)   ...       0.01
freq.    1366.54  E(vib)   ...       0.01
freq.    1370.50  E(vib)   ...       0.01
freq.    1389.51  E(vib)   ...       0.00
freq.    1409.70  E(vib)   ...       0.00
freq.    1438.91  E(vib)   ...       0.00
freq.    1448.56  E(vib)   ...       0.00
freq.    1465.00  E(vib)   ...       0.00
freq.    1465.95  E(vib)   ...       0.00
freq.    1469.20  E(vib)   ...       0.00
freq.    1473.13  E(vib)   ...       0.00
freq.    1475.43  E(vib)   ...       0.00
freq.    1486.73  E(vib)   ...       0.00
freq.    1499.58  E(vib)   ...       0.00
freq.    1500.22  E(vib)   ...       0.00
freq.    1540.65  E(vib)   ...       0.00
freq.    1620.51  E(vib)   ...       0.00
freq.    1631.48  E(vib)   ...       0.00
freq.    1650.45  E(vib)   ...       0.00
freq.    1664.91  E(vib)   ...       0.00
freq.    1706.50  E(vib)   ...       0.00
freq.    1794.73  E(vib)   ...       0.00
freq.    3026.44  E(vib)   ...       0.00
freq.    3040.47  E(vib)   ...       0.00
freq.    3073.66  E(vib)   ...       0.00
freq.    3111.37  E(vib)   ...       0.00
freq.    3112.90  E(vib)   ...       0.00
freq.    3123.49  E(vib)   ...       0.00
freq.    3156.91  E(vib)   ...       0.00
freq.    3168.05  E(vib)   ...       0.00
freq.    3185.31  E(vib)   ...       0.00
freq.    3187.03  E(vib)   ...       0.00
freq.    3189.44  E(vib)   ...       0.00
freq.    3196.07  E(vib)   ...       0.00
freq.    3203.76  E(vib)   ...       0.00
freq.    3207.28  E(vib)   ...       0.00
freq.    3213.81  E(vib)   ...       0.00
freq.    3214.03  E(vib)   ...       0.00
freq.    3231.02  E(vib)   ...       0.00
freq.    3244.07  E(vib)   ...       0.00

------------
INNER ENERGY
------------

The inner energy is: U= E(el) + E(ZPE) + E(vib) + E(rot) + E(trans)
    E(el)   - is the total energy from the electronic structure calculation
              = E(kin-el) + E(nuc-el) + E(el-el) + E(nuc-nuc)
    E(ZPE)  - the the zero temperature vibrational energy from the frequency calculation
    E(vib)  - the the finite temperature correction to E(ZPE) due to population
              of excited vibrational states
    E(rot)  - is the rotational thermal energy
    E(trans)- is the translational thermal energy

Summary of contributions to the inner energy U:
Electronic energy                ...  -1143.35689871 Eh
Zero point energy                ...      0.33584691 Eh     210.75 kcal/mol
Thermal vibrational correction   ...      0.01853372 Eh      11.63 kcal/mol
Thermal rotational correction    ...      0.00141627 Eh       0.89 kcal/mol
Thermal translational correction ...      0.00141627 Eh       0.89 kcal/mol
-----------------------------------------------------------------------
Total thermal energy                  -1142.99968554 Eh

Rotational constants in cm-1:     0.013060     0.007204     0.005931

                             ****ORCA TERMINATED NORMALLY****
TOTAL RUN TIME: 0 days 1 hours 34 minutes 55 seconds 884 msec
