                         Program Version 5.0.4 -  RELEASE  -
|  1> %pal nprocs 24 end
|  2> ! PBE0 D3BJ def2-TZVP TightSCF OPT FREQ TightOpt
|  3> ! CPCM(dmso)
|  4> %scf
|  5> MaxIter 800
|  6> end
|  7>
|  8> %geom
|  9> MaxIter 800
| 10> MaxStep 0.15
| 11> end
| 12>
| 13> *xyz 0 1
| 14> C       4.12876800     -0.43483600     -0.74205100
| 15> C       3.97564300     -1.34217100      0.37433000
| 16> C       2.73455600     -1.48590500      0.90464000
| 17> N       1.64485600     -0.86439300      0.37973100
| 18> C       1.68510600      0.01098000     -0.77304800
| 19> C       3.07570300      0.20898700     -1.28662600
| 20> C       0.38946600     -0.75129800      1.06504800
| 21> C      -0.51599000     -1.94050800      0.77248600
| 22> O      -0.19469400     -2.90975700      0.13199600
| 23> O      -1.66951900     -1.82125600      1.41775600
| 24> C      -2.61430900     -2.86961800      1.24493400
| 25> H       5.12699100     -0.27237100     -1.15945400
| 26> H       2.53483600     -2.10500500      1.78338100
| 27> H       1.02127100     -0.36978600     -1.57337300
| 28> H       3.19955200      0.88068400     -2.13905800
| 29> H       0.55700800     -0.79630100      2.15343300
| 30> H      -2.18196100     -3.83505900      1.54304500
| 31> H      -2.93404600     -2.92629400      0.19426900
| 32> C       0.90034200      1.27832300     -0.27072300
| 33> C      -0.14589500      0.68855400      0.71953000
| 34> C      -1.58666800      0.84432100      0.29996600
| 35> C      -2.41670300      1.69979100      1.02373400
| 36> C      -3.75903700      1.88397800      0.68476200
| 37> C      -4.28654300      1.19374400     -0.40166700
| 38> C      -3.48178800      0.33119500     -1.14894100
| 39> C      -2.14036100      0.16164000     -0.80155100
| 40> O      -1.29131000     -0.64817700     -1.46530500
| 41> C      -1.76100200     -1.44424400     -2.52860400
| 42> N       1.91420400      2.06297900      0.53353100
| 43> O       2.15319100      1.69231700      1.66420600
| 44> H      -0.05016500      1.26813800      1.64296700
| 45> H      -1.99652800      2.23165000      1.88192500
| 46> H      -4.38485700      2.55997600      1.27126300
| 47> H      -5.33554900      1.32071100     -0.68098100
| 48> H      -3.90376800     -0.20478100     -1.99954100
| 49> H      -0.90852400     -2.05017800     -2.85806700
| 50> H      -2.11452400     -0.82226400     -3.36682100
| 51> H      -2.57477000     -2.11130000     -2.20114200
| 52> O       2.51308300      2.95585500     -0.02445600
| 53> H      -3.46898600     -2.62083500      1.88344700
| 54> C       0.37711300      2.14181900     -1.39233600
| 55> H       1.20279600      2.49035300     -2.02471000
| 56> H      -0.30877800      1.54941600     -2.00896500
| 57> H      -0.16396000      3.01471000     -1.00219200
| 58> H       4.82626900     -1.87135400      0.80195800
| 59> *
| 60>
| 61>                          ****END OF INPUT****
 Total Charge           Charge          ....    0
 Multiplicity           Mult            ....    1
 Number of Electrons    NEL             ....  182
Dispersion correction           -0.060368037
FINAL SINGLE POINT ENERGY     -1182.635893767251
Dispersion correction            ... done
Dispersion correction           -0.059896143
FINAL SINGLE POINT ENERGY     -1182.637065449141
Dispersion correction            ... done
Dispersion correction           -0.060606329
FINAL SINGLE POINT ENERGY     -1182.635416517847
Dispersion correction            ... done
FINAL SINGLE POINT ENERGY     -1182.637560221343
FINAL SINGLE POINT ENERGY     -1182.637575013538
FINAL SINGLE POINT ENERGY     -1182.637577330096
FINAL SINGLE POINT ENERGY     -1182.637622395105
FINAL SINGLE POINT ENERGY     -1182.637632742351
Dispersion correction           -0.060279925
FINAL SINGLE POINT ENERGY     -1182.637641420481
Dispersion correction            ... done
Dispersion correction           -0.060268097
FINAL SINGLE POINT ENERGY     -1182.637642007179
Dispersion correction            ... done
                    ***********************HURRAY********************

CARTESIAN COORDINATES (ANGSTROEM)
---------------------------------
  C      4.132888   -0.422217   -0.713962
  C      3.966755   -1.341594    0.383990
  C      2.727017   -1.494596    0.893627
  N      1.643599   -0.874921    0.363596
  C      1.699069    0.019965   -0.769550
  C      3.092981    0.227008   -1.256862
  C      0.391087   -0.764294    1.051378
  C     -0.511721   -1.959053    0.780441
  O     -0.189626   -2.933991    0.150846
  O     -1.659129   -1.836920    1.433322
  C     -2.591941   -2.909418    1.279869
  H      5.128259   -0.252606   -1.111400
  H      2.520464   -2.117265    1.756729
  H      1.056765   -0.348030   -1.582296
  H      3.226281    0.911149   -2.086407
  H      0.567458   -0.801145    2.131081
  H     -2.162406   -3.841769    1.646398
  H     -2.866933   -3.019200    0.230406
  C      0.897178    1.275485   -0.270593
  C     -0.148410    0.672549    0.709418
  C     -1.583906    0.832680    0.284962
  C     -2.398699    1.693521    1.006408
  C     -3.731506    1.896557    0.670276
  C     -4.265130    1.220236   -0.412864
  C     -3.475778    0.352013   -1.156989
  C     -2.144193    0.162830   -0.810869
  O     -1.307925   -0.660380   -1.477720
  C     -1.816253   -1.425146   -2.554193
  N      1.889553    2.081668    0.535390
  O      2.144323    1.706808    1.662339
  H     -0.062348    1.238906    1.633254
  H     -1.974711    2.214938    1.858386
  H     -4.342583    2.574674    1.253588
  H     -5.303400    1.361779   -0.690903
  H     -3.901723   -0.172801   -2.001529
  H     -0.985279   -2.031806   -2.907635
  H     -2.168713   -0.778318   -3.362057
  H     -2.630261   -2.075787   -2.223481
  O      2.461325    2.999779   -0.013033
  H     -3.460278   -2.630860    1.871125
  C      0.375028    2.120603   -1.402855
  H      1.194538    2.457765   -2.035280
  H     -0.303030    1.521565   -2.007306
  H     -0.163371    2.992068   -1.029482
  H      4.805203   -1.869999    0.813161

 Multiplicity           Mult            ....    1
 Number of Electrons    NEL             ....  182
 Basis Dimension        Dim             ....  895

ORBITAL ENERGIES
----------------

  NO   OCC          E(Eh)            E(eV)
   0   2.0000     -19.261463      -524.1311
   1   2.0000     -19.248871      -523.7884
   2   2.0000     -19.246382      -523.7207
   3   2.0000     -19.246062      -523.7120
   4   2.0000     -19.199781      -522.4526
   5   2.0000     -14.617595      -397.7650
   6   2.0000     -14.419994      -392.3880
   7   2.0000     -10.356306      -281.8094
   8   2.0000     -10.299851      -280.2732
   9   2.0000     -10.290884      -280.0292
  10   2.0000     -10.284692      -279.8607
  11   2.0000     -10.281758      -279.7809
  12   2.0000     -10.269796      -279.4554
  13   2.0000     -10.267884      -279.4033
  14   2.0000     -10.262528      -279.2576
  15   2.0000     -10.261162      -279.2204
  16   2.0000     -10.240396      -278.6553
  17   2.0000     -10.230202      -278.3779
  18   2.0000     -10.229805      -278.3672
  19   2.0000     -10.228373      -278.3282
  20   2.0000     -10.226397      -278.2744
  21   2.0000     -10.221590      -278.1436
  22   2.0000     -10.221552      -278.1426
  23   2.0000     -10.218956      -278.0719
  24   2.0000     -10.204629      -277.6821
  25   2.0000      -1.277783       -34.7702
  26   2.0000      -1.151780       -31.3415
  27   2.0000      -1.112505       -30.2728
  28   2.0000      -1.098164       -29.8826
  29   2.0000      -1.058869       -28.8133
  30   2.0000      -1.015680       -27.6381
  31   2.0000      -0.901422       -24.5289
  32   2.0000      -0.880288       -23.9539
  33   2.0000      -0.852489       -23.1974
  34   2.0000      -0.809834       -22.0367
  35   2.0000      -0.788179       -21.4474
  36   2.0000      -0.782124       -21.2827
  37   2.0000      -0.777758       -21.1639
  38   2.0000      -0.747058       -20.3285
  39   2.0000      -0.727124       -19.7860
  40   2.0000      -0.721944       -19.6451
  41   2.0000      -0.701087       -19.0775
  42   2.0000      -0.665022       -18.0962
  43   2.0000      -0.646260       -17.5856
  44   2.0000      -0.630959       -17.1693
  45   2.0000      -0.616028       -16.7630
  46   2.0000      -0.597751       -16.2656
  47   2.0000      -0.592555       -16.1242
  48   2.0000      -0.570405       -15.5215
  49   2.0000      -0.568019       -15.4566
  50   2.0000      -0.556006       -15.1297
  51   2.0000      -0.545977       -14.8568
  52   2.0000      -0.542901       -14.7731
  53   2.0000      -0.533363       -14.5135
  54   2.0000      -0.517292       -14.0762
  55   2.0000      -0.514691       -14.0055
  56   2.0000      -0.502472       -13.6730
  57   2.0000      -0.501224       -13.6390
  58   2.0000      -0.491476       -13.3737
  59   2.0000      -0.485395       -13.2083
  60   2.0000      -0.483260       -13.1502
  61   2.0000      -0.466732       -12.7004
  62   2.0000      -0.462867       -12.5952
  63   2.0000      -0.457308       -12.4440
  64   2.0000      -0.444470       -12.0947
  65   2.0000      -0.439493       -11.9592
  66   2.0000      -0.437150       -11.8954
  67   2.0000      -0.427577       -11.6349
  68   2.0000      -0.423189       -11.5156
  69   2.0000      -0.414620       -11.2824
  70   2.0000      -0.409961       -11.1556
  71   2.0000      -0.399166       -10.8618
  72   2.0000      -0.396649       -10.7934
  73   2.0000      -0.384411       -10.4604
  74   2.0000      -0.378755       -10.3064
  75   2.0000      -0.373835       -10.1726
  76   2.0000      -0.371219       -10.1014
  77   2.0000      -0.364382        -9.9153
  78   2.0000      -0.358092        -9.7442
  79   2.0000      -0.354597        -9.6491
  80   2.0000      -0.344083        -9.3630
  81   2.0000      -0.341119        -9.2823
  82   2.0000      -0.339371        -9.2348
  83   2.0000      -0.328522        -8.9395
  84   2.0000      -0.327701        -8.9172
  85   2.0000      -0.318610        -8.6698
  86   2.0000      -0.306999        -8.3539
  87   2.0000      -0.294628        -8.0172
  88   2.0000      -0.271136        -7.3780
  89   2.0000      -0.241205        -6.5635
  90   2.0000      -0.195667        -5.3244
  91   0.0000      -0.068048        -1.8517
  92   0.0000      -0.025322        -0.6891
  93   0.0000      -0.014590        -0.3970
  94   0.0000      -0.000550        -0.0150
  95   0.0000       0.008249         0.2245

MULLIKEN ATOMIC CHARGES
-----------------------
   0 C :   -0.129671
   1 C :   -0.251699
   2 C :   -0.137278
   3 N :    0.027354
   4 C :    0.045848
   5 C :   -0.326272
   6 C :    0.015694
   7 C :    0.276468
   8 O :   -0.390327
   9 O :   -0.222927
  10 C :   -0.260667
  11 H :    0.149725
  12 H :    0.169506
  13 H :    0.113614
  14 H :    0.151720
  15 H :    0.139585
  16 H :    0.156000
  17 H :    0.154410
  18 C :    0.007033
  19 C :    0.108828
  20 C :   -0.012253
  21 C :   -0.249531
  22 C :   -0.199492
  23 C :   -0.148923
  24 C :   -0.311603
  25 C :    0.270251
  26 O :   -0.250180
  27 C :   -0.294130
  28 N :    0.483400
  29 O :   -0.356744
  30 H :    0.138768
  31 H :    0.145101
  32 H :    0.145747
  33 H :    0.151206
  34 H :    0.165380
  35 H :    0.162506
  36 H :    0.158969
  37 H :    0.157146
  38 O :   -0.347557
  39 H :    0.160828
  40 C :   -0.400426
  41 H :    0.163475
  42 H :    0.160333
  43 H :    0.156679
  44 H :    0.154106
Sum of atomic charges:   -0.0000000

LOEWDIN ATOMIC CHARGES
----------------------
   0 C :   -0.165943
   1 C :   -0.232129
   2 C :   -0.185740
   3 N :    0.262608
   4 C :   -0.192576
   5 C :   -0.159783
   6 C :   -0.179759
   7 C :   -0.484538
   8 O :    0.084318
   9 O :    0.277205
  10 C :   -0.304170
  11 H :    0.154528
  12 H :    0.160276
  13 H :    0.172699
  14 H :    0.152629
  15 H :    0.184951
  16 H :    0.119557
  17 H :    0.118745
  18 C :   -0.222766
  19 C :   -0.114509
  20 C :   -0.111590
  21 C :   -0.110619
  22 C :   -0.165380
  23 C :   -0.144601
  24 C :   -0.138349
  25 C :   -0.245308
  26 O :    0.267872
  27 C :   -0.327640
  28 N :   -0.029757
  29 O :   -0.028381
  30 H :    0.184425
  31 H :    0.159599
  32 H :    0.152168
  33 H :    0.154586
  34 H :    0.161257
  35 H :    0.122749
  36 H :    0.119837
  37 H :    0.118619
  38 O :   -0.029204
  39 H :    0.122578
  40 C :   -0.250974
  41 H :    0.137888
  42 H :    0.145978
  43 H :    0.140145
  44 H :    0.148500

  Mayer bond orders larger than 0.100000
B(  0-C ,  1-C ) :   1.0896 B(  0-C ,  5-C ) :   1.8518 B(  0-C , 11-H ) :   0.9582
B(  1-C ,  2-C ) :   1.6680 B(  1-C , 44-H ) :   0.9707 B(  2-C ,  3-N ) :   1.2020
B(  2-C , 12-H ) :   0.9494 B(  3-N ,  4-C ) :   0.9756 B(  3-N ,  6-C ) :   0.9959
B(  4-C ,  5-C ) :   0.9255 B(  4-C , 13-H ) :   0.9044 B(  4-C , 18-C ) :   0.9677
B(  5-C , 14-H ) :   0.9642 B(  6-C ,  7-C ) :   0.9520 B(  6-C , 15-H ) :   0.9088
B(  6-C , 19-C ) :   1.0026 B(  7-C ,  8-O ) :   2.0166 B(  7-C ,  9-O ) :   1.2491
B(  9-O , 10-C ) :   0.8881 B( 10-C , 16-H ) :   0.9635 B( 10-C , 17-H ) :   0.9700
B( 10-C , 39-H ) :   0.9650 B( 18-C , 19-C ) :   0.9247 B( 18-C , 28-N ) :   0.8799
B( 18-C , 40-C ) :   0.9804 B( 19-C , 20-C ) :   0.7496 B( 19-C , 30-H ) :   0.9310
B( 20-C , 21-C ) :   1.3799 B( 20-C , 25-C ) :   1.2076 B( 21-C , 22-C ) :   1.4017
B( 21-C , 31-H ) :   0.9784 B( 22-C , 23-C ) :   1.4047 B( 22-C , 32-H ) :   0.9844
B( 23-C , 24-C ) :   1.3876 B( 23-C , 33-H ) :   0.9698 B( 24-C , 25-C ) :   1.3988
B( 24-C , 34-H ) :   0.9612 B( 25-C , 26-O ) :   1.0855 B( 26-O , 27-C ) :   0.9205
B( 27-C , 35-H ) :   0.9646 B( 27-C , 36-H ) :   0.9597 B( 27-C , 37-H ) :   0.9630
B( 28-N , 29-O ) :   1.5887 B( 28-N , 38-O ) :   1.6019 B( 29-O , 38-O ) :   0.1907
B( 40-C , 41-H ) :   0.9435 B( 40-C , 42-H ) :   0.9571 B( 40-C , 43-H ) :   0.9678

Dispersion correction           -0.060265228
FINAL SINGLE POINT ENERGY     -1182.637642613957

DIPOLE MOMENT
-------------
                                X             Y             Z
Electronic contribution:      7.77841       3.72404       6.88083
Nuclear contribution   :    -10.83865      -4.51868      -7.61737
                        -----------------------------------------
Total Dipole Moment    :     -3.06024      -0.79464      -0.73655
                        -----------------------------------------
Magnitude (a.u.)       :      3.24639
Magnitude (Debye)      :      8.25166

Dispersion correction in the Hessian             ... done   (      0.8 sec)

VIBRATIONAL FREQUENCIES
-----------------------

Scaling factor for frequencies =  1.000000000  (already applied!)

   0:         0.00 cm**-1
   1:         0.00 cm**-1
   2:         0.00 cm**-1
   3:         0.00 cm**-1
   4:         0.00 cm**-1
   5:         0.00 cm**-1
   6:        19.71 cm**-1
   7:        45.37 cm**-1
   8:        57.14 cm**-1
   9:        65.81 cm**-1
  10:        74.55 cm**-1
  11:        80.18 cm**-1
  12:        99.81 cm**-1
  13:       101.63 cm**-1
  14:       115.85 cm**-1
  15:       119.64 cm**-1
  16:       145.12 cm**-1
  17:       154.39 cm**-1
  18:       183.52 cm**-1
  19:       193.85 cm**-1
  20:       205.71 cm**-1
  21:       222.19 cm**-1
  22:       234.10 cm**-1
  23:       246.87 cm**-1
  24:       252.88 cm**-1
  25:       285.84 cm**-1
  26:       289.25 cm**-1
  27:       301.94 cm**-1
  28:       325.26 cm**-1
  29:       348.14 cm**-1
  30:       370.39 cm**-1
  31:       385.13 cm**-1
  32:       421.58 cm**-1
  33:       447.68 cm**-1
  34:       486.59 cm**-1
  35:       491.62 cm**-1
  36:       543.98 cm**-1
  37:       548.12 cm**-1
  38:       559.76 cm**-1
  39:       576.63 cm**-1
  40:       584.91 cm**-1
  41:       609.07 cm**-1
  42:       641.24 cm**-1
  43:       644.28 cm**-1
  44:       660.07 cm**-1
  45:       703.91 cm**-1
  46:       711.15 cm**-1
  47:       749.80 cm**-1
  48:       751.88 cm**-1
  49:       766.84 cm**-1
  50:       779.12 cm**-1
  51:       797.17 cm**-1
  52:       830.05 cm**-1
  53:       847.87 cm**-1
  54:       855.98 cm**-1
  55:       874.63 cm**-1
  56:       881.24 cm**-1
  57:       910.78 cm**-1
  58:       925.76 cm**-1
  59:       943.63 cm**-1
  60:       950.74 cm**-1
  61:       961.56 cm**-1
  62:       989.54 cm**-1
  63:       995.05 cm**-1
  64:      1006.71 cm**-1
  65:      1018.90 cm**-1
  66:      1027.79 cm**-1
  67:      1040.07 cm**-1
  68:      1069.45 cm**-1
  69:      1074.32 cm**-1
  70:      1086.93 cm**-1
  71:      1100.85 cm**-1
  72:      1146.49 cm**-1
  73:      1153.97 cm**-1
  74:      1162.79 cm**-1
  75:      1170.64 cm**-1
  76:      1171.42 cm**-1
  77:      1173.65 cm**-1
  78:      1195.26 cm**-1
  79:      1205.47 cm**-1
  80:      1207.11 cm**-1
  81:      1239.34 cm**-1
  82:      1243.08 cm**-1
  83:      1245.27 cm**-1
  84:      1255.25 cm**-1
  85:      1265.37 cm**-1
  86:      1277.71 cm**-1
  87:      1306.19 cm**-1
  88:      1317.48 cm**-1
  89:      1330.49 cm**-1
  90:      1349.09 cm**-1
  91:      1356.42 cm**-1
  92:      1370.17 cm**-1
  93:      1390.64 cm**-1
  94:      1396.01 cm**-1
  95:      1402.14 cm**-1
  96:      1432.45 cm**-1
  97:      1442.47 cm**-1
  98:      1464.43 cm**-1
  99:      1464.92 cm**-1
 100:      1466.97 cm**-1
 101:      1468.60 cm**-1
 102:      1472.00 cm**-1
 103:      1473.62 cm**-1
 104:      1474.26 cm**-1
 105:      1481.95 cm**-1
 106:      1498.51 cm**-1
 107:      1501.13 cm**-1
 108:      1541.91 cm**-1
 109:      1618.85 cm**-1
 110:      1629.66 cm**-1
 111:      1651.50 cm**-1
 112:      1664.47 cm**-1
 113:      1707.01 cm**-1
 114:      1791.18 cm**-1
 115:      2995.08 cm**-1
 116:      3040.35 cm**-1
 117:      3070.48 cm**-1
 118:      3071.81 cm**-1
 119:      3083.32 cm**-1
 120:      3113.16 cm**-1
 121:      3145.76 cm**-1
 122:      3154.56 cm**-1
 123:      3163.56 cm**-1
 124:      3168.24 cm**-1
 125:      3179.64 cm**-1
 126:      3184.32 cm**-1
 127:      3185.58 cm**-1
 128:      3188.31 cm**-1
 129:      3196.63 cm**-1
 130:      3207.27 cm**-1
 131:      3210.58 cm**-1
 132:      3214.46 cm**-1
 133:      3231.64 cm**-1
 134:      3245.48 cm**-1

IR SPECTRUM
-----------

 Mode   freq       eps      Int      T**2         TX        TY        TZ
       cm**-1   L/(mol*cm) km/mol    a.u.
----------------------------------------------------------------------------
  6:     19.71   0.000109    0.55  0.001721  (-0.010107 -0.035147  0.019588)
  7:     45.37   0.000013    0.07  0.000091  (-0.000980  0.002219 -0.009218)
  8:     57.14   0.000394    1.99  0.002150  (-0.011409 -0.044869 -0.002592)
  9:     65.81   0.000367    1.85  0.001739  ( 0.034748  0.011920  0.019731)
 10:     74.55   0.001136    5.74  0.004755  ( 0.005171 -0.046785  0.050390)
 11:     80.18   0.000183    0.92  0.000712  (-0.024764  0.001848 -0.009744)
 12:     99.81   0.000624    3.16  0.001952  (-0.015406 -0.034163  0.023402)
 13:    101.63   0.000154    0.78  0.000472  (-0.017427  0.009896 -0.008390)
 14:    115.85   0.000053    0.27  0.000142  (-0.005857 -0.003289 -0.009846)
 15:    119.64   0.000612    3.09  0.001597  (-0.016277 -0.029506  0.021471)
 16:    145.12   0.000880    4.45  0.001893  (-0.032910  0.027683 -0.006631)
 17:    154.39   0.000246    1.24  0.000497  (-0.015676  0.013753  0.007866)
 18:    183.52   0.000696    3.52  0.001184  (-0.019791 -0.008618  0.026796)
 19:    193.85   0.000285    1.44  0.000459  ( 0.011004  0.016382 -0.008312)
 20:    205.71   0.002004   10.13  0.003041  ( 0.018519  0.022463 -0.046833)
 21:    222.19   0.000242    1.22  0.000340  ( 0.008066 -0.014497  0.008065)
 22:    234.10   0.000319    1.61  0.000425  ( 0.019415 -0.003315 -0.006123)
 23:    246.87   0.000587    2.97  0.000742  (-0.021904 -0.009946  0.012776)
 24:    252.88   0.000438    2.21  0.000540  ( 0.005386  0.011587 -0.019417)
 25:    285.84   0.001553    7.85  0.001695  ( 0.040941 -0.001033 -0.004221)
 26:    289.25   0.002447   12.37  0.002640  ( 0.049407 -0.007518 -0.011947)
 27:    301.94   0.000451    2.28  0.000467  ( 0.005104 -0.020579  0.004126)
 28:    325.26   0.000051    0.26  0.000049  ( 0.005969  0.000098  0.003607)
 29:    348.14   0.000071    0.36  0.000063  ( 0.007652 -0.001682  0.001403)
 30:    370.39   0.003173   16.04  0.002673  (-0.043903 -0.026681  0.005844)
 31:    385.13   0.002467   12.47  0.001999  ( 0.003760  0.033593  0.029262)
 32:    421.58   0.008940   45.18  0.006618  ( 0.006773 -0.076794 -0.025978)
 33:    447.68   0.001714    8.66  0.001194  (-0.023858 -0.001227 -0.024975)
 34:    486.59   0.000077    0.39  0.000049  ( 0.003464  0.006063  0.000754)
 35:    491.62   0.001219    6.16  0.000774  (-0.002365 -0.023882  0.014069)
 36:    543.98   0.000869    4.39  0.000499  (-0.013895  0.007614  0.015737)
 37:    548.12   0.005837   29.50  0.003323  (-0.023017  0.028290 -0.044644)
 38:    559.76   0.003063   15.48  0.001708  (-0.038637  0.002252 -0.014485)
 39:    576.63   0.004377   22.12  0.002369  ( 0.034577 -0.005610 -0.033791)
 40:    584.91   0.002427   12.27  0.001295  (-0.001060 -0.004887 -0.035637)
 41:    609.07   0.001345    6.80  0.000689  (-0.024237 -0.000264  0.010094)
 42:    641.24   0.002476   12.51  0.001205  ( 0.021195  0.027308  0.003179)
 43:    644.28   0.001552    7.84  0.000752  (-0.002547 -0.026543  0.006366)
 44:    660.07   0.006662   33.67  0.003150  (-0.017624 -0.052402 -0.009656)
 45:    703.91   0.016984   85.83  0.007530  (-0.001299  0.064748  0.057753)
 46:    711.15   0.001754    8.86  0.000769  ( 0.005745  0.021733 -0.016254)
 47:    749.80   0.000893    4.52  0.000372  (-0.011649 -0.000447  0.015360)
 48:    751.88   0.001168    5.90  0.000485  ( 0.000851  0.006974  0.020865)
 49:    766.84   0.020070  101.43  0.008167  ( 0.022002  0.063755 -0.060155)
 50:    779.12   0.005046   25.50  0.002021  (-0.009088 -0.040348  0.017624)
 51:    797.17   0.000983    4.97  0.000385  ( 0.018839  0.004997  0.002212)
 52:    830.05   0.002828   14.29  0.001063  (-0.022625 -0.008573  0.021863)
 53:    847.87   0.026220  132.51  0.009650  ( 0.041506 -0.085685 -0.024205)
 54:    855.98   0.000842    4.25  0.000307  ( 0.002321 -0.012501 -0.012048)
 55:    874.63   0.000540    2.73  0.000193  ( 0.009102  0.009527 -0.004371)
 56:    881.24   0.002170   10.96  0.000768  ( 0.017254  0.015237  0.015443)
 57:    910.78   0.014946   75.53  0.005121  ( 0.034771  0.057551  0.024492)
 58:    925.76   0.003199   16.17  0.001078  (-0.017212 -0.018881  0.020629)
 59:    943.63   0.001698    8.58  0.000562  (-0.021744  0.005893  0.007359)
 60:    950.74   0.004039   20.41  0.001326  (-0.023651 -0.023139 -0.015199)
 61:    961.56   0.001259    6.36  0.000409  (-0.014783  0.001810 -0.013666)
 62:    989.54   0.000008    0.04  0.000002  ( 0.001402 -0.000545 -0.000422)
 63:    995.05   0.000766    3.87  0.000240  (-0.010479  0.008925 -0.007131)
 64:   1006.71   0.004824   24.38  0.001495  (-0.017232  0.028357 -0.019857)
 65:   1018.90   0.002938   14.85  0.000900  ( 0.020992  0.021425  0.000082)
 66:   1027.79   0.001413    7.14  0.000429  ( 0.001084 -0.020426 -0.003271)
 67:   1040.07   0.014850   75.05  0.004456  (-0.048400 -0.040810  0.021161)
 68:   1069.45   0.009950   50.28  0.002903  (-0.032233 -0.019116 -0.038716)
 69:   1074.32   0.003387   17.11  0.000984  (-0.008009 -0.020698 -0.022162)
 70:   1086.93   0.004725   23.88  0.001357  ( 0.010021 -0.023919 -0.026156)
 71:   1100.85   0.006829   34.51  0.001936  (-0.001004 -0.036229 -0.024947)
 72:   1146.49   0.010086   50.97  0.002745  (-0.004203 -0.022440 -0.047160)
 73:   1153.97   0.007210   36.44  0.001950  ( 0.019725  0.038918 -0.006793)
 74:   1162.79   0.001865    9.42  0.000500  ( 0.010895  0.015634  0.011720)
 75:   1170.64   0.000325    1.64  0.000087  ( 0.002500  0.005961 -0.006703)
 76:   1171.42   0.000099    0.50  0.000026  (-0.001781  0.001330 -0.004632)
 77:   1173.65   0.000742    3.75  0.000197  (-0.004622 -0.007705 -0.010796)
 78:   1195.26   0.005192   26.24  0.001356  (-0.036813  0.000611  0.000010)
 79:   1205.47   0.001726    8.72  0.000447  (-0.001455  0.009371  0.018892)
 80:   1207.11   0.005052   25.53  0.001306  (-0.030226 -0.019047  0.005454)
 81:   1239.34   0.042692  215.75  0.010750  ( 0.088216  0.035755 -0.041099)
 82:   1243.08   0.007026   35.51  0.001764  ( 0.011629  0.039043 -0.010212)
 83:   1245.27   0.019779   99.96  0.004957  ( 0.045986  0.052019 -0.011661)
 84:   1255.25   0.018396   92.97  0.004573  (-0.066025 -0.004687  0.013864)
 85:   1265.37   0.054190  273.85  0.013364  ( 0.103727  0.037333 -0.034801)
 86:   1277.71   0.008177   41.32  0.001997  ( 0.043664  0.002417  0.009203)
 87:   1306.19   0.070139  354.45  0.016757  ( 0.060787 -0.081718 -0.079900)
 88:   1317.48   0.008032   40.59  0.001902  (-0.025735 -0.001536  0.035182)
 89:   1330.49   0.009861   49.83  0.002313  (-0.039440  0.025385  0.010626)
 90:   1349.09   0.020100  101.58  0.004649  ( 0.066302  0.015253 -0.004555)
 91:   1356.42   0.012478   63.06  0.002871  (-0.019585 -0.046096 -0.019031)
 92:   1370.17   0.013646   68.96  0.003108  ( 0.052712 -0.002727 -0.017944)
 93:   1390.64   0.005206   26.31  0.001168  (-0.020607  0.003683 -0.027018)
 94:   1396.01   0.004172   21.08  0.000933  (-0.021839 -0.010842  0.018388)
 95:   1402.14   0.006789   34.31  0.001511  (-0.009017 -0.037804 -0.000719)
 96:   1432.45   0.012580   63.57  0.002741  ( 0.016994 -0.041367 -0.027214)
 97:   1442.47   0.033691  170.26  0.007289  (-0.058691 -0.045843 -0.041742)
 98:   1464.43   0.002823   14.26  0.000601  ( 0.002831 -0.022954 -0.008158)
 99:   1464.92   0.003610   18.24  0.000769  (-0.002286 -0.018055  0.020923)
100:   1466.97   0.002536   12.81  0.000539  (-0.019402 -0.005294  0.011618)
101:   1468.60   0.009267   46.83  0.001969  (-0.042556 -0.012517  0.001203)
102:   1472.00   0.003156   15.95  0.000669  (-0.009512 -0.015368  0.018504)
103:   1473.62   0.007581   38.31  0.001605  (-0.006318  0.028982  0.026936)
104:   1474.26   0.004550   23.00  0.000963  ( 0.006995  0.013480  0.027066)
105:   1481.95   0.004310   21.78  0.000907  ( 0.020951 -0.016260 -0.014288)
106:   1498.51   0.009784   49.45  0.002038  ( 0.015386 -0.032368 -0.027444)
107:   1501.13   0.031525  159.31  0.006554  ( 0.072524 -0.030475  0.019108)
108:   1541.91   0.031616  159.77  0.006399  ( 0.041796 -0.055840 -0.039163)
109:   1618.85   0.019793  100.03  0.003816  (-0.043431  0.032649 -0.029382)
110:   1629.66   0.141468  714.92  0.027090  ( 0.066237  0.096208 -0.115959)
111:   1651.50   0.010283   51.97  0.001943  (-0.008985  0.017578  0.039413)
112:   1664.47   0.010893   55.05  0.002042  (-0.033759  0.026273  0.014570)
113:   1707.01   0.034476  174.23  0.006303  (-0.076649  0.020679  0.000191)
114:   1791.18   0.106141  536.39  0.018492  (-0.066277  0.098336  0.066554)
115:   2995.08   0.007795   39.39  0.000812  ( 0.016838 -0.003899  0.022659)
116:   3040.35   0.011832   59.80  0.001214  (-0.011045 -0.018846 -0.027154)
117:   3070.48   0.008394   42.42  0.000853  ( 0.022730  0.015820 -0.009283)
118:   3071.81   0.002123   10.73  0.000216  ( 0.006772  0.011579  0.005980)
119:   3083.32   0.002451   12.39  0.000248  (-0.004853  0.011269 -0.009877)
120:   3113.16   0.007027   35.51  0.000704  ( 0.006524  0.019249 -0.017067)
121:   3145.76   0.000279    1.41  0.000028  ( 0.004138 -0.002879 -0.001509)
122:   3154.56   0.004147   20.96  0.000410  ( 0.007205 -0.009334  0.016469)
123:   3163.56   0.002378   12.02  0.000235  ( 0.010806 -0.005419 -0.009402)
124:   3168.24   0.003397   17.17  0.000335  (-0.014762  0.009561  0.005030)
125:   3179.64   0.000685    3.46  0.000067  ( 0.006996  0.003818  0.001935)
126:   3184.32   0.003090   15.62  0.000303  (-0.015155 -0.003440  0.007830)
127:   3185.58   0.001139    5.76  0.000112  (-0.006075 -0.003935 -0.007695)
128:   3188.31   0.002306   11.65  0.000226  ( 0.010890 -0.005529 -0.008749)
129:   3196.63   0.001743    8.81  0.000170  (-0.010734 -0.001723 -0.007209)
130:   3207.27   0.000247    1.25  0.000024  ( 0.002458 -0.003872  0.001725)
131:   3210.58   0.001269    6.41  0.000123  (-0.006580 -0.003137  0.008380)
132:   3214.46   0.003228   16.31  0.000313  (-0.011743  0.010422  0.008175)
133:   3231.64   0.000351    1.78  0.000034  ( 0.003151  0.002512  0.004204)
134:   3245.48   0.000854    4.31  0.000082  (-0.002930  0.006235 -0.005884)

--------------------------
THERMOCHEMISTRY AT 298.15K
--------------------------

Temperature         ... 298.15 K
Pressure            ... 1.00 atm
Total Mass          ... 344.37 AMU

Throughout the following assumptions are being made:
  (1) The electronic state is orbitally nondegenerate
  (2) There are no thermally accessible electronically excited states
  (3) Hindered rotations indicated by low frequency modes are not
      treated as such but are treated as vibrations and this may
      cause some error
  (4) All equations used are the standard statistical mechanics
      equations for an ideal gas
  (5) All vibrations are strictly harmonic

freq.      19.71  E(vib)   ...       0.56
freq.      45.37  E(vib)   ...       0.53
freq.      57.14  E(vib)   ...       0.51
freq.      65.81  E(vib)   ...       0.50
freq.      74.55  E(vib)   ...       0.49
freq.      80.18  E(vib)   ...       0.49
freq.      99.81  E(vib)   ...       0.46
freq.     101.63  E(vib)   ...       0.46
freq.     115.85  E(vib)   ...       0.44
freq.     119.64  E(vib)   ...       0.44
freq.     145.12  E(vib)   ...       0.41
freq.     154.39  E(vib)   ...       0.40
freq.     183.52  E(vib)   ...       0.37
freq.     193.85  E(vib)   ...       0.36
freq.     205.71  E(vib)   ...       0.35
freq.     222.19  E(vib)   ...       0.33
freq.     234.10  E(vib)   ...       0.32
freq.     246.87  E(vib)   ...       0.31
freq.     252.88  E(vib)   ...       0.30
freq.     285.84  E(vib)   ...       0.27
freq.     289.25  E(vib)   ...       0.27
freq.     301.94  E(vib)   ...       0.26
freq.     325.26  E(vib)   ...       0.24
freq.     348.14  E(vib)   ...       0.23
freq.     370.39  E(vib)   ...       0.21
freq.     385.13  E(vib)   ...       0.20
freq.     421.58  E(vib)   ...       0.18
freq.     447.68  E(vib)   ...       0.17
freq.     486.59  E(vib)   ...       0.15
freq.     491.62  E(vib)   ...       0.14
freq.     543.98  E(vib)   ...       0.12
freq.     548.12  E(vib)   ...       0.12
freq.     559.76  E(vib)   ...       0.12
freq.     576.63  E(vib)   ...       0.11
freq.     584.91  E(vib)   ...       0.11
freq.     609.07  E(vib)   ...       0.10
freq.     641.24  E(vib)   ...       0.09
freq.     644.28  E(vib)   ...       0.09
freq.     660.07  E(vib)   ...       0.08
freq.     703.91  E(vib)   ...       0.07
freq.     711.15  E(vib)   ...       0.07
freq.     749.80  E(vib)   ...       0.06
freq.     751.88  E(vib)   ...       0.06
freq.     766.84  E(vib)   ...       0.06
freq.     779.12  E(vib)   ...       0.05
freq.     797.17  E(vib)   ...       0.05
freq.     830.05  E(vib)   ...       0.04
freq.     847.87  E(vib)   ...       0.04
freq.     855.98  E(vib)   ...       0.04
freq.     874.63  E(vib)   ...       0.04
freq.     881.24  E(vib)   ...       0.04
freq.     910.78  E(vib)   ...       0.03
freq.     925.76  E(vib)   ...       0.03
freq.     943.63  E(vib)   ...       0.03
freq.     950.74  E(vib)   ...       0.03
freq.     961.56  E(vib)   ...       0.03
freq.     989.54  E(vib)   ...       0.02
freq.     995.05  E(vib)   ...       0.02
freq.    1006.71  E(vib)   ...       0.02
freq.    1018.90  E(vib)   ...       0.02
freq.    1027.79  E(vib)   ...       0.02
freq.    1040.07  E(vib)   ...       0.02
freq.    1069.45  E(vib)   ...       0.02
freq.    1074.32  E(vib)   ...       0.02
freq.    1086.93  E(vib)   ...       0.02
freq.    1100.85  E(vib)   ...       0.02
freq.    1146.49  E(vib)   ...       0.01
freq.    1153.97  E(vib)   ...       0.01
freq.    1162.79  E(vib)   ...       0.01
freq.    1170.64  E(vib)   ...       0.01
freq.    1171.42  E(vib)   ...       0.01
freq.    1173.65  E(vib)   ...       0.01
freq.    1195.26  E(vib)   ...       0.01
freq.    1205.47  E(vib)   ...       0.01
freq.    1207.11  E(vib)   ...       0.01
freq.    1239.34  E(vib)   ...       0.01
freq.    1243.08  E(vib)   ...       0.01
freq.    1245.27  E(vib)   ...       0.01
freq.    1255.25  E(vib)   ...       0.01
freq.    1265.37  E(vib)   ...       0.01
freq.    1277.71  E(vib)   ...       0.01
freq.    1306.19  E(vib)   ...       0.01
freq.    1317.48  E(vib)   ...       0.01
freq.    1330.49  E(vib)   ...       0.01
freq.    1349.09  E(vib)   ...       0.01
freq.    1356.42  E(vib)   ...       0.01
freq.    1370.17  E(vib)   ...       0.01
freq.    1390.64  E(vib)   ...       0.00
freq.    1396.01  E(vib)   ...       0.00
freq.    1402.14  E(vib)   ...       0.00
freq.    1432.45  E(vib)   ...       0.00
freq.    1442.47  E(vib)   ...       0.00
freq.    1464.43  E(vib)   ...       0.00
freq.    1464.92  E(vib)   ...       0.00
freq.    1466.97  E(vib)   ...       0.00
freq.    1468.60  E(vib)   ...       0.00
freq.    1472.00  E(vib)   ...       0.00
freq.    1473.62  E(vib)   ...       0.00
freq.    1474.26  E(vib)   ...       0.00
freq.    1481.95  E(vib)   ...       0.00
freq.    1498.51  E(vib)   ...       0.00
freq.    1501.13  E(vib)   ...       0.00
freq.    1541.91  E(vib)   ...       0.00
freq.    1618.85  E(vib)   ...       0.00
freq.    1629.66  E(vib)   ...       0.00
freq.    1651.50  E(vib)   ...       0.00
freq.    1664.47  E(vib)   ...       0.00
freq.    1707.01  E(vib)   ...       0.00
freq.    1791.18  E(vib)   ...       0.00
freq.    2995.08  E(vib)   ...       0.00
freq.    3040.35  E(vib)   ...       0.00
freq.    3070.48  E(vib)   ...       0.00
freq.    3071.81  E(vib)   ...       0.00
freq.    3083.32  E(vib)   ...       0.00
freq.    3113.16  E(vib)   ...       0.00
freq.    3145.76  E(vib)   ...       0.00
freq.    3154.56  E(vib)   ...       0.00
freq.    3163.56  E(vib)   ...       0.00
freq.    3168.24  E(vib)   ...       0.00
freq.    3179.64  E(vib)   ...       0.00
freq.    3184.32  E(vib)   ...       0.00
freq.    3185.58  E(vib)   ...       0.00
freq.    3188.31  E(vib)   ...       0.00
freq.    3196.63  E(vib)   ...       0.00
freq.    3207.27  E(vib)   ...       0.00
freq.    3210.58  E(vib)   ...       0.00
freq.    3214.46  E(vib)   ...       0.00
freq.    3231.64  E(vib)   ...       0.00
freq.    3245.48  E(vib)   ...       0.00

------------
INNER ENERGY
------------

The inner energy is: U= E(el) + E(ZPE) + E(vib) + E(rot) + E(trans)
    E(el)   - is the total energy from the electronic structure calculation
              = E(kin-el) + E(nuc-el) + E(el-el) + E(nuc-nuc)
    E(ZPE)  - the the zero temperature vibrational energy from the frequency calculation
    E(vib)  - the the finite temperature correction to E(ZPE) due to population
              of excited vibrational states
    E(rot)  - is the rotational thermal energy
    E(trans)- is the translational thermal energy

Summary of contributions to the inner energy U:

Rotational constants in cm-1:     0.012262     0.007065     0.005765

                             ****ORCA TERMINATED NORMALLY****
TOTAL RUN TIME: 0 days 1 hours 38 minutes 25 seconds 881 msec
