                         Program Version 5.0.4 -  RELEASE  -
|  1> %pal nprocs 24 end
|  2> ! PBE0 D3BJ def2-TZVP TightSCF OPT FREQ TightOpt
|  3> ! CPCM(dmso)
|  4> %scf
|  5> MaxIter 800
|  6> end
|  7>
|  8> %geom
|  9> MaxIter 800
| 10> MaxStep 0.15
| 11> end
| 12>
| 13> *xyz 0 1
| 14> C      -4.03604500     -0.95039100      0.27262000
| 15> C      -3.68546900     -2.07404600     -0.56409400
| 16> C      -2.37496200     -2.25149800     -0.86542700
| 17> N      -1.40172900     -1.44044400     -0.36712500
| 18> C      -1.65197800     -0.29214700      0.47007000
| 19> C      -3.10409100     -0.10974300      0.77044600
| 20> C      -0.05658900     -1.40562800     -0.85898400
| 21> C       0.87446500     -2.21446100      0.03810100
| 22> O       0.52066400     -2.84013200      1.00519500
| 23> O       2.10414100     -2.22829700     -0.45611600
| 24> C       3.08259400     -2.95783800      0.27414100
| 25> H      -5.08729700     -0.78585300      0.52617100
| 26> H      -2.01676200     -3.05172400     -1.51791100
| 27> H      -1.04857400     -0.34702700      1.39817400
| 28> H      -3.38560900      0.71656600      1.42569200
| 29> H      -0.00405200     -1.89869300     -1.84168000
| 30> H       4.01499100     -2.87315200     -0.29448600
| 31> H       2.78765500     -4.01220800      0.36999800
| 32> C      -0.90267100      0.85628600     -0.32833200
| 33> C       0.25494700      0.12538000     -1.05660400
| 34> C       1.62800400      0.63626400     -0.71718900
| 35> C       2.42105900      1.20350200     -1.71221500
| 36> C       3.69745200      1.69815500     -1.43382600
| 37> C       4.18496400      1.62686800     -0.13282900
| 38> C       3.41221500      1.06433400      0.88633700
| 39> C       2.14069100      0.56858500      0.59410700
| 40> O       1.33132700     -0.01349700      1.49873900
| 41> C       1.74074100     -0.12990300      2.84120200
| 42> N      -1.92847400      1.35026300     -1.35445700
| 43> O      -2.09327600      0.68539100     -2.35013100
| 44> H       0.10842000      0.31111900     -2.12576100
| 45> H       2.02555000      1.25720500     -2.73034400
| 46> H       4.30171100      2.13656700     -2.23082000
| 47> H       5.18045800      2.01081800      0.10435100
| 48> H       3.80691600      1.01338900      1.90152300
| 49> H       1.88777700      0.86178500      3.29885300
| 50> H       2.67121800     -0.71358300      2.92971900
| 51> H       0.93357300     -0.65687700      3.36415900
| 52> O      -2.58656500      2.31304500     -1.03978700
| 53> H       3.21223500     -2.52657400      1.27710900
| 54> H      -4.44137700     -2.75285200     -0.95641300
| 55> N      -0.46149700      1.97531000      0.42842000
| 56> N      -1.13941900      2.39391000      1.35732800
| 57> N      -1.64191100      2.89541500      2.23587600
| 58> *
| 59>
| 60>                          ****END OF INPUT****
 Total Charge           Charge          ....    0
 Multiplicity           Mult            ....    1
 Number of Electrons    NEL             ....  194
Dispersion correction           -0.061581092
FINAL SINGLE POINT ENERGY     -1306.826353200648
Dispersion correction            ... done
Dispersion correction           -0.061157592
FINAL SINGLE POINT ENERGY     -1306.827672694477
Dispersion correction            ... done
Dispersion correction           -0.061905558
FINAL SINGLE POINT ENERGY     -1306.825380615425
Dispersion correction            ... done
FINAL SINGLE POINT ENERGY     -1306.828145371498
FINAL SINGLE POINT ENERGY     -1306.827729104978
FINAL SINGLE POINT ENERGY     -1306.828227363995
FINAL SINGLE POINT ENERGY     -1306.828236384137
FINAL SINGLE POINT ENERGY     -1306.828253661388
FINAL SINGLE POINT ENERGY     -1306.828257674344
FINAL SINGLE POINT ENERGY     -1306.828262985439
FINAL SINGLE POINT ENERGY     -1306.828266734424
FINAL SINGLE POINT ENERGY     -1306.828268965695
Dispersion correction           -0.061520589
FINAL SINGLE POINT ENERGY     -1306.828270646516
Dispersion correction            ... done
Dispersion correction           -0.061530672
FINAL SINGLE POINT ENERGY     -1306.828271592993
Dispersion correction            ... done
                    ***********************HURRAY********************

CARTESIAN COORDINATES (ANGSTROEM)
---------------------------------
  C     -4.044375   -0.947047    0.245240
  C     -3.670677   -2.088226   -0.547773
  C     -2.362277   -2.261100   -0.821894
  N     -1.403125   -1.434378   -0.330762
  C     -1.678049   -0.262976    0.462438
  C     -3.134622   -0.084888    0.723514
  C     -0.063059   -1.402035   -0.832450
  C      0.881899   -2.220082    0.039736
  O      0.544528   -2.857205    1.004050
  O      2.101002   -2.229864   -0.477623
  C      3.085626   -2.984771    0.232844
  H     -5.092644   -0.784581    0.472625
  H     -1.990832   -3.067704   -1.443120
  H     -1.105828   -0.290851    1.402009
  H     -3.433147    0.757126    1.335118
  H     -0.028219   -1.888738   -1.810721
  H      4.011365   -2.856052   -0.321693
  H      2.803661   -4.037237    0.266426
  C     -0.913630    0.867069   -0.339626
  C      0.252260    0.124626   -1.039374
  C      1.618622    0.637672   -0.688828
  C      2.404717    1.196115   -1.684662
  C      3.675388    1.691039   -1.416981
  C      4.165434    1.627936   -0.124164
  C      3.399890    1.074209    0.895630
  C      2.133283    0.580442    0.613882
  O      1.327514    0.008936    1.531185
  C      1.783383   -0.111987    2.864655
  N     -1.915736    1.366356   -1.388471
  O     -2.084218    0.683230   -2.372369
  H      0.128432    0.294447   -2.106453
  H      2.009741    1.240279   -2.694399
  H      4.271218    2.120748   -2.213102
  H      5.153974    2.009557    0.105270
  H      3.795413    1.029427    1.901511
  H      1.958429    0.871820    3.308245
  H      2.700049   -0.705475    2.916282
  H      0.989378   -0.621399    3.406653
  O     -2.555341    2.353711   -1.110367
  H      3.193919   -2.600694    1.247331
  H     -4.407191   -2.779400   -0.929802
  N     -0.469648    1.994310    0.409171
  N     -1.133957    2.356367    1.371234
  N     -1.627130    2.804857    2.273382

 Multiplicity           Mult            ....    1
 Number of Electrons    NEL             ....  194
 Basis Dimension        Dim             ....  939

ORBITAL ENERGIES
----------------

  NO   OCC          E(Eh)            E(eV)
   0   2.0000     -19.263473      -524.1858
   1   2.0000     -19.257523      -524.0238
   2   2.0000     -19.257512      -524.0235
   3   2.0000     -19.248726      -523.7844
   4   2.0000     -19.202265      -522.5202
   5   2.0000     -14.627221      -398.0269
   6   2.0000     -14.574110      -396.5817
   7   2.0000     -14.469059      -393.7231
   8   2.0000     -14.447684      -393.1415
   9   2.0000     -14.429265      -392.6403
  10   2.0000     -10.359245      -281.8894
  11   2.0000     -10.347076      -281.5582
  12   2.0000     -10.294867      -280.1376
  13   2.0000     -10.291662      -280.0503
  14   2.0000     -10.290822      -280.0275
  15   2.0000     -10.270681      -279.4794
  16   2.0000     -10.268908      -279.4312
  17   2.0000     -10.268041      -279.4076
  18   2.0000     -10.267952      -279.4052
  19   2.0000     -10.241897      -278.6962
  20   2.0000     -10.233949      -278.4799
  21   2.0000     -10.230853      -278.3957
  22   2.0000     -10.230691      -278.3913
  23   2.0000     -10.227417      -278.3022
  24   2.0000     -10.226374      -278.2738
  25   2.0000     -10.221701      -278.1466
  26   2.0000     -10.209149      -277.8051
  27   2.0000      -1.290055       -35.1042
  28   2.0000      -1.199822       -32.6488
  29   2.0000      -1.154184       -31.4069
  30   2.0000      -1.112751       -30.2795
  31   2.0000      -1.112551       -30.2741
  32   2.0000      -1.061837       -28.8940
  33   2.0000      -1.045147       -28.4399
  34   2.0000      -1.020922       -27.7807
  35   2.0000      -0.901999       -24.5446
  36   2.0000      -0.878895       -23.9159
  37   2.0000      -0.857090       -23.3226
  38   2.0000      -0.813792       -22.1444
  39   2.0000      -0.795351       -21.6426
  40   2.0000      -0.784083       -21.3360
  41   2.0000      -0.779556       -21.2128
  42   2.0000      -0.749150       -20.3854
  43   2.0000      -0.723337       -19.6830
  44   2.0000      -0.712176       -19.3793
  45   2.0000      -0.684779       -18.6338
  46   2.0000      -0.672621       -18.3029
  47   2.0000      -0.653528       -17.7834
  48   2.0000      -0.633543       -17.2396
  49   2.0000      -0.616495       -16.7757
  50   2.0000      -0.604498       -16.4492
  51   2.0000      -0.599174       -16.3043
  52   2.0000      -0.581124       -15.8132
  53   2.0000      -0.568240       -15.4626
  54   2.0000      -0.557432       -15.1685
  55   2.0000      -0.554269       -15.0824
  56   2.0000      -0.550025       -14.9669
  57   2.0000      -0.548036       -14.9128
  58   2.0000      -0.539597       -14.6832
  59   2.0000      -0.526813       -14.3353
  60   2.0000      -0.521081       -14.1793
  61   2.0000      -0.514331       -13.9956
  62   2.0000      -0.504607       -13.7310
  63   2.0000      -0.502610       -13.6767
  64   2.0000      -0.491825       -13.3832
  65   2.0000      -0.488792       -13.3007
  66   2.0000      -0.483636       -13.1604
  67   2.0000      -0.482111       -13.1189
  68   2.0000      -0.464837       -12.6489
  69   2.0000      -0.462745       -12.5919
  70   2.0000      -0.453714       -12.3462
  71   2.0000      -0.443573       -12.0702
  72   2.0000      -0.440155       -11.9772
  73   2.0000      -0.436508       -11.8780
  74   2.0000      -0.425135       -11.5685
  75   2.0000      -0.408790       -11.1237
  76   2.0000      -0.403616       -10.9830
  77   2.0000      -0.398904       -10.8547
  78   2.0000      -0.389214       -10.5911
  79   2.0000      -0.383044       -10.4231
  80   2.0000      -0.380879       -10.3642
  81   2.0000      -0.371485       -10.1086
  82   2.0000      -0.369853       -10.0642
  83   2.0000      -0.363501        -9.8914
  84   2.0000      -0.352826        -9.6009
  85   2.0000      -0.348246        -9.4763
  86   2.0000      -0.345737        -9.4080
  87   2.0000      -0.342017        -9.3068
  88   2.0000      -0.334575        -9.1042
  89   2.0000      -0.332852        -9.0574
  90   2.0000      -0.329612        -8.9692
  91   2.0000      -0.313207        -8.5228
  92   2.0000      -0.299748        -8.1566
  93   2.0000      -0.290581        -7.9071
  94   2.0000      -0.272324        -7.4103
  95   2.0000      -0.241131        -6.5615
  96   2.0000      -0.202808        -5.5187
  97   0.0000      -0.075607        -2.0574
  98   0.0000      -0.038912        -1.0588
  99   0.0000      -0.030468        -0.8291
 100   0.0000      -0.016103        -0.4382
 101   0.0000      -0.006190        -0.1684

MULLIKEN ATOMIC CHARGES
-----------------------
   0 C :   -0.123020
   1 C :   -0.243509
   2 C :   -0.134533
   3 N :    0.047548
   4 C :   -0.004304
   5 C :   -0.309364
   6 C :   -0.046750
   7 C :    0.282099
   8 O :   -0.386476
   9 O :   -0.218013
  10 C :   -0.260482
  11 H :    0.153970
  12 H :    0.173795
  13 H :    0.146878
  14 H :    0.159129
  15 H :    0.151539
  16 H :    0.161845
  17 H :    0.157531
  18 C :   -0.028783
  19 C :    0.204066
  20 C :    0.019325
  21 C :   -0.265548
  22 C :   -0.199532
  23 C :   -0.150052
  24 C :   -0.310141
  25 C :    0.285517
  26 O :   -0.248167
  27 C :   -0.297328
  28 N :    0.506064
  29 O :   -0.338325
  30 H :    0.141309
  31 H :    0.146055
  32 H :    0.145955
  33 H :    0.151169
  34 H :    0.165087
  35 H :    0.159029
  36 H :    0.156492
  37 H :    0.162870
  38 O :   -0.341623
  39 H :    0.154144
  40 H :    0.157935
  41 N :   -0.344074
  42 N :    0.436691
  43 N :   -0.176017
Sum of atomic charges:    0.0000000

LOEWDIN ATOMIC CHARGES
----------------------
   0 C :   -0.155819
   1 C :   -0.223898
   2 C :   -0.177625
   3 N :    0.265414
   4 C :   -0.200278
   5 C :   -0.166495
   6 C :   -0.174012
   7 C :   -0.485112
   8 O :    0.086628
   9 O :    0.279486
  10 C :   -0.302545
  11 H :    0.157194
  12 H :    0.162016
  13 H :    0.174925
  14 H :    0.151357
  15 H :    0.187364
  16 H :    0.123091
  17 H :    0.120179
  18 C :   -0.266860
  19 C :   -0.115125
  20 C :   -0.115123
  21 C :   -0.109919
  22 C :   -0.165505
  23 C :   -0.143533
  24 C :   -0.138407
  25 C :   -0.241209
  26 O :    0.272081
  27 C :   -0.327379
  28 N :   -0.044763
  29 O :   -0.012606
  30 H :    0.186516
  31 H :    0.159835
  32 H :    0.152241
  33 H :    0.154755
  34 H :    0.161085
  35 H :    0.120195
  36 H :    0.118174
  37 H :    0.122776
  38 O :   -0.019003
  39 H :    0.119133
  40 H :    0.150879
  41 N :    0.052790
  42 N :    0.103703
  43 N :    0.003398

  Mayer bond orders larger than 0.100000
B(  0-C ,  1-C ) :   1.1017 B(  0-C ,  5-C ) :   1.8458 B(  0-C , 11-H ) :   0.9562
B(  1-C ,  2-C ) :   1.6694 B(  1-C , 40-H ) :   0.9682 B(  2-C ,  3-N ) :   1.1968
B(  2-C , 12-H ) :   0.9451 B(  3-N ,  4-C ) :   0.9639 B(  3-N ,  6-C ) :   0.9762
B(  4-C ,  5-C ) :   0.9252 B(  4-C ,  6-C ) :   0.1059 B(  4-C , 13-H ) :   0.9139
B(  4-C , 18-C ) :   0.9843 B(  5-C , 14-H ) :   0.9554 B(  6-C ,  7-C ) :   0.9642
B(  6-C , 15-H ) :   0.9015 B(  6-C , 19-C ) :   0.9989 B(  7-C ,  8-O ) :   2.0154
B(  7-C ,  9-O ) :   1.2451 B(  9-O , 10-C ) :   0.8859 B( 10-C , 16-H ) :   0.9649
B( 10-C , 17-H ) :   0.9630 B( 10-C , 39-H ) :   0.9700 B( 18-C , 19-C ) :   0.9248
B( 18-C , 28-N ) :   0.8320 B( 18-C , 38-O ) :   0.1328 B( 18-C , 41-N ) :   1.0795
B( 19-C , 20-C ) :   0.7624 B( 19-C , 30-H ) :   0.9201 B( 19-C , 41-N ) :  -0.1000
B( 20-C , 21-C ) :   1.3688 B( 20-C , 25-C ) :   1.2162 B( 21-C , 22-C ) :   1.4000
B( 21-C , 31-H ) :   0.9794 B( 22-C , 23-C ) :   1.4041 B( 22-C , 32-H ) :   0.9843
B( 23-C , 24-C ) :   1.3857 B( 23-C , 33-H ) :   0.9700 B( 24-C , 25-C ) :   1.3867
B( 24-C , 34-H ) :   0.9615 B( 25-C , 26-O ) :   1.0972 B( 26-O , 27-C ) :   0.9216
B( 27-C , 35-H ) :   0.9601 B( 27-C , 36-H ) :   0.9624 B( 27-C , 37-H ) :   0.9647
B( 28-N , 29-O ) :   1.5990 B( 28-N , 38-O ) :   1.5810 B( 29-O , 38-O ) :   0.2010
B( 41-N , 42-N ) :   1.3729 B( 41-N , 43-N ) :   0.3321 B( 42-N , 43-N ) :   2.0486

Dispersion correction           -0.061531375
FINAL SINGLE POINT ENERGY     -1306.828272069534

DIPOLE MOMENT
-------------
                                X             Y             Z
Electronic contribution:    -11.14324       9.44935      -4.13206
Nuclear contribution   :     13.85038     -10.61804       4.63180
                        -----------------------------------------
Total Dipole Moment    :      2.70713      -1.16869       0.49974
                        -----------------------------------------
Magnitude (a.u.)       :      2.99068
Magnitude (Debye)      :      7.60170

Dispersion correction in the Hessian             ... done   (      0.7 sec)

VIBRATIONAL FREQUENCIES
-----------------------

Scaling factor for frequencies =  1.000000000  (already applied!)

   0:         0.00 cm**-1
   1:         0.00 cm**-1
   2:         0.00 cm**-1
   3:         0.00 cm**-1
   4:         0.00 cm**-1
   5:         0.00 cm**-1
   6:        23.31 cm**-1
   7:        32.27 cm**-1
   8:        48.40 cm**-1
   9:        61.01 cm**-1
  10:        71.17 cm**-1
  11:        74.13 cm**-1
  12:        87.12 cm**-1
  13:        98.33 cm**-1
  14:        99.43 cm**-1
  15:       112.78 cm**-1
  16:       119.44 cm**-1
  17:       122.22 cm**-1
  18:       146.91 cm**-1
  19:       152.88 cm**-1
  20:       177.25 cm**-1
  21:       198.30 cm**-1
  22:       205.13 cm**-1
  23:       233.18 cm**-1
  24:       244.59 cm**-1
  25:       255.33 cm**-1
  26:       283.56 cm**-1
  27:       288.24 cm**-1
  28:       300.94 cm**-1
  29:       319.34 cm**-1
  30:       361.11 cm**-1
  31:       369.56 cm**-1
  32:       381.99 cm**-1
  33:       424.70 cm**-1
  34:       445.53 cm**-1
  35:       474.26 cm**-1
  36:       487.36 cm**-1
  37:       507.58 cm**-1
  38:       552.12 cm**-1
  39:       560.80 cm**-1
  40:       565.46 cm**-1
  41:       587.13 cm**-1
  42:       599.27 cm**-1
  43:       608.60 cm**-1
  44:       619.28 cm**-1
  45:       645.24 cm**-1
  46:       666.41 cm**-1
  47:       701.08 cm**-1
  48:       711.32 cm**-1
  49:       714.75 cm**-1
  50:       755.23 cm**-1
  51:       766.15 cm**-1
  52:       773.74 cm**-1
  53:       789.05 cm**-1
  54:       799.16 cm**-1
  55:       834.31 cm**-1
  56:       841.67 cm**-1
  57:       867.71 cm**-1
  58:       871.97 cm**-1
  59:       882.37 cm**-1
  60:       924.82 cm**-1
  61:       942.73 cm**-1
  62:       956.47 cm**-1
  63:       958.41 cm**-1
  64:       988.73 cm**-1
  65:       995.09 cm**-1
  66:      1001.00 cm**-1
  67:      1018.56 cm**-1
  68:      1021.97 cm**-1
  69:      1039.48 cm**-1
  70:      1060.30 cm**-1
  71:      1071.69 cm**-1
  72:      1085.10 cm**-1
  73:      1092.80 cm**-1
  74:      1146.72 cm**-1
  75:      1157.97 cm**-1
  76:      1170.87 cm**-1
  77:      1171.89 cm**-1
  78:      1172.53 cm**-1
  79:      1173.33 cm**-1
  80:      1205.84 cm**-1
  81:      1206.91 cm**-1
  82:      1207.41 cm**-1
  83:      1237.18 cm**-1
  84:      1244.06 cm**-1
  85:      1249.85 cm**-1
  86:      1265.23 cm**-1
  87:      1274.82 cm**-1
  88:      1308.26 cm**-1
  89:      1322.38 cm**-1
  90:      1327.23 cm**-1
  91:      1353.38 cm**-1
  92:      1359.46 cm**-1
  93:      1370.14 cm**-1
  94:      1389.09 cm**-1
  95:      1393.75 cm**-1
  96:      1401.45 cm**-1
  97:      1432.53 cm**-1
  98:      1444.04 cm**-1
  99:      1465.27 cm**-1
 100:      1465.46 cm**-1
 101:      1468.94 cm**-1
 102:      1472.24 cm**-1
 103:      1474.66 cm**-1
 104:      1483.58 cm**-1
 105:      1499.80 cm**-1
 106:      1503.73 cm**-1
 107:      1541.54 cm**-1
 108:      1620.41 cm**-1
 109:      1649.74 cm**-1
 110:      1653.99 cm**-1
 111:      1665.19 cm**-1
 112:      1708.06 cm**-1
 113:      1794.11 cm**-1
 114:      2295.05 cm**-1
 115:      2991.30 cm**-1
 116:      3040.62 cm**-1
 117:      3072.76 cm**-1
 118:      3087.84 cm**-1
 119:      3113.30 cm**-1
 120:      3143.10 cm**-1
 121:      3156.23 cm**-1
 122:      3167.79 cm**-1
 123:      3186.15 cm**-1
 124:      3189.04 cm**-1
 125:      3189.62 cm**-1
 126:      3196.15 cm**-1
 127:      3213.06 cm**-1
 128:      3214.31 cm**-1
 129:      3219.02 cm**-1
 130:      3230.11 cm**-1
 131:      3247.86 cm**-1

IR SPECTRUM
-----------

 Mode   freq       eps      Int      T**2         TX        TY        TZ
       cm**-1   L/(mol*cm) km/mol    a.u.
----------------------------------------------------------------------------
  6:     23.31   0.000012    0.06  0.000166  ( 0.000638 -0.008478 -0.009699)
  7:     32.27   0.000066    0.33  0.000635  (-0.002172 -0.010712 -0.022697)
  8:     48.40   0.000066    0.33  0.000427  (-0.012735  0.007665  0.014369)
  9:     61.01   0.000257    1.30  0.001316  (-0.013787  0.032274 -0.009180)
 10:     71.17   0.000357    1.80  0.001565  ( 0.028112  0.005651  0.027262)
 11:     74.13   0.000848    4.29  0.003571  (-0.023141  0.053958  0.011140)
 12:     87.12   0.000184    0.93  0.000660  (-0.022280 -0.005673 -0.011472)
 13:     98.33   0.000545    2.76  0.001731  (-0.028220  0.029453  0.008170)
 14:     99.43   0.000676    3.42  0.002121  ( 0.013356  0.037748  0.022757)
 15:    112.78   0.000152    0.77  0.000421  (-0.002454  0.020069  0.003435)
 16:    119.44   0.000561    2.84  0.001466  (-0.015244  0.032683  0.012860)
 17:    122.22   0.000054    0.28  0.000139  ( 0.011106 -0.003784 -0.001145)
 18:    146.91   0.000815    4.12  0.001731  ( 0.020616  0.036052  0.002410)
 19:    152.88   0.000198    1.00  0.000404  (-0.010809 -0.013504  0.010227)
 20:    177.25   0.000691    3.49  0.001216  ( 0.022139 -0.019344 -0.018753)
 21:    198.30   0.000260    1.31  0.000409  (-0.005601  0.018738  0.005170)
 22:    205.13   0.001295    6.55  0.001970  (-0.007984  0.032446  0.029223)
 23:    233.18   0.000697    3.52  0.000933  (-0.027201 -0.013425 -0.003591)
 24:    244.59   0.000380    1.92  0.000485  (-0.012973  0.016411  0.006863)
 25:    255.33   0.000260    1.31  0.000317  (-0.001280  0.012186  0.012936)
 26:    283.56   0.002570   12.99  0.002829  (-0.052151  0.007304  0.007448)
 27:    288.24   0.002612   13.20  0.002828  (-0.050081 -0.006813  0.016527)
 28:    300.94   0.000352    1.78  0.000365  (-0.000689  0.018668 -0.003977)
 29:    319.34   0.000130    0.66  0.000127  ( 0.003797 -0.009916 -0.003787)
 30:    361.11   0.001440    7.28  0.001245  ( 0.009371  0.032624 -0.009623)
 31:    369.56   0.002087   10.55  0.001763  ( 0.032522 -0.019880  0.017598)
 32:    381.99   0.001763    8.91  0.001440  ( 0.017525  0.012248 -0.031358)
 33:    424.70   0.007276   36.77  0.005346  (-0.003757  0.070839 -0.017713)
 34:    445.53   0.002118   10.70  0.001483  (-0.010266 -0.016040 -0.033478)
 35:    474.26   0.001484    7.50  0.000977  (-0.007569 -0.015236 -0.026214)
 36:    487.36   0.000907    4.58  0.000580  ( 0.003128 -0.020741 -0.011853)
 37:    507.58   0.000126    0.64  0.000077  ( 0.003775  0.001689  0.007765)
 38:    552.12   0.003807   19.24  0.002152  ( 0.003681 -0.044093 -0.013924)
 39:    560.80   0.004581   23.15  0.002549  (-0.017739 -0.009875 -0.046226)
 40:    565.46   0.006287   31.77  0.003470  (-0.053259 -0.015299  0.019978)
 41:    587.13   0.002723   13.76  0.001447  ( 0.002844 -0.028388 -0.025166)
 42:    599.27   0.002507   12.67  0.001305  ( 0.013411 -0.022506  0.024877)
 43:    608.60   0.003567   18.03  0.001829  (-0.029745  0.020385  0.022994)
 44:    619.28   0.002531   12.79  0.001275  ( 0.016290  0.004155  0.031508)
 45:    645.24   0.003326   16.81  0.001609  (-0.009602  0.036755 -0.012866)
 46:    666.41   0.010396   52.54  0.004868  (-0.030889  0.051776 -0.035116)
 47:    701.08   0.004752   24.02  0.002115  (-0.027716  0.013989  0.033933)
 48:    711.32   0.011255   56.88  0.004938  (-0.007479 -0.037793  0.058768)
 49:    714.75   0.008026   40.56  0.003504  (-0.000559 -0.027283  0.052533)
 50:    755.23   0.001182    5.97  0.000489  (-0.006181  0.007878  0.019704)
 51:    766.15   0.016776   84.78  0.006833  (-0.034480  0.071444  0.023239)
 52:    773.74   0.006332   32.00  0.002554  (-0.011187  0.048837  0.006605)
 53:    789.05   0.006878   34.76  0.002720  ( 0.034362 -0.037271  0.012261)
 54:    799.16   0.000665    3.36  0.000259  ( 0.003075  0.015792 -0.000813)
 55:    834.31   0.004288   21.67  0.001604  ( 0.025223 -0.030378 -0.006705)
 56:    841.67   0.028286  142.95  0.010488  ( 0.043445  0.082649 -0.042064)
 57:    867.71   0.003826   19.33  0.001376  ( 0.030177 -0.021528 -0.001334)
 58:    871.97   0.003946   19.94  0.001412  ( 0.026172 -0.019000  0.019136)
 59:    882.37   0.005042   25.48  0.001783  ( 0.006986  0.008409  0.040788)
 60:    924.82   0.006590   33.30  0.002224  ( 0.003521 -0.046408 -0.007581)
 61:    942.73   0.002839   14.35  0.000940  (-0.024256  0.017699 -0.006188)
 62:    956.47   0.002150   10.86  0.000701  ( 0.002369 -0.023605  0.011772)
 63:    958.41   0.004563   23.06  0.001486  ( 0.006954 -0.036898  0.008707)
 64:    988.73   0.000024    0.12  0.000008  ( 0.000691  0.002307 -0.001313)
 65:    995.09   0.000736    3.72  0.000231  ( 0.002035  0.014562  0.003817)
 66:   1001.00   0.000508    2.57  0.000158  (-0.003389  0.012117 -0.000269)
 67:   1018.56   0.002063   10.43  0.000632  ( 0.017881 -0.002505  0.017494)
 68:   1021.97   0.002022   10.22  0.000618  (-0.018040 -0.016918 -0.002426)
 69:   1039.48   0.015882   80.26  0.004768  (-0.051211  0.045589  0.008191)
 70:   1060.30   0.004420   22.34  0.001301  ( 0.015863  0.015914  0.028213)
 71:   1071.69   0.009405   47.53  0.002739  (-0.029704  0.002046 -0.043036)
 72:   1085.10   0.009131   46.14  0.002626  ( 0.000171  0.016384 -0.048553)
 73:   1092.80   0.002560   12.93  0.000731  (-0.015676  0.006662  0.020996)
 74:   1146.72   0.013014   65.77  0.003542  (-0.012593  0.015613 -0.056029)
 75:   1157.97   0.004287   21.66  0.001155  (-0.018979  0.028122  0.002027)
 76:   1170.87   0.000014    0.07  0.000004  (-0.000040  0.001746  0.000803)
 77:   1171.89   0.001171    5.92  0.000312  ( 0.002190 -0.015453 -0.008254)
 78:   1172.53   0.011502   58.13  0.003061  (-0.005686 -0.041192 -0.036498)
 79:   1173.33   0.000727    3.68  0.000193  ( 0.003680 -0.012115  0.005757)
 80:   1205.84   0.003042   15.37  0.000787  ( 0.026247  0.003512 -0.009275)
 81:   1206.91   0.005588   28.24  0.001445  ( 0.032963 -0.007219  0.017495)
 82:   1207.41   0.003275   16.55  0.000847  ( 0.016288  0.018223  0.015784)
 83:   1237.18   0.004087   20.65  0.001031  ( 0.029573 -0.004676 -0.011592)
 84:   1244.06   0.009453   47.77  0.002371  (-0.028816 -0.037860  0.010362)
 85:   1249.85   0.072578  366.78  0.018121  (-0.121485  0.057320  0.008778)
 86:   1265.23   0.052652  266.08  0.012986  ( 0.108030 -0.035059 -0.009322)
 87:   1274.82   0.012452   62.93  0.003048  ( 0.051667  0.003378  0.019166)
 88:   1308.26   0.063030  318.53  0.015035  ( 0.054104  0.049278 -0.098383)
 89:   1322.38   0.004910   24.81  0.001159  ( 0.014808  0.005142 -0.030214)
 90:   1327.23   0.008782   44.38  0.002065  ( 0.037539  0.022739 -0.011772)
 91:   1353.38   0.023630  119.42  0.005449  (-0.068537  0.022996 -0.014919)
 92:   1359.46   0.008497   42.94  0.001950  (-0.029219 -0.028110  0.017509)
 93:   1370.14   0.011971   60.50  0.002727  ( 0.051595 -0.003141 -0.007393)
 94:   1389.09   0.013379   67.61  0.003006  ( 0.011523  0.013504  0.051871)
 95:   1393.75   0.066057  333.83  0.014790  ( 0.038269 -0.062178 -0.097261)
 96:   1401.45   0.007358   37.19  0.001639  (-0.008366 -0.001390  0.039580)
 97:   1432.53   0.034770  175.71  0.007574  (-0.039610  0.052642 -0.056871)
 98:   1444.04   0.019411   98.09  0.004195  (-0.058245 -0.002598 -0.028204)
 99:   1465.27   0.002833   14.32  0.000603  ( 0.002876 -0.006461 -0.023522)
100:   1465.46   0.005297   26.77  0.001128  ( 0.001548 -0.031615  0.011225)
101:   1468.94   0.005632   28.46  0.001196  (-0.034385  0.001270 -0.003546)
102:   1472.24   0.004529   22.89  0.000960  (-0.020640  0.016234  0.016447)
103:   1474.66   0.002903   14.67  0.000614  ( 0.007076  0.013441 -0.019585)
104:   1483.58   0.003342   16.89  0.000703  ( 0.018672  0.012169 -0.014358)
105:   1499.80   0.010881   54.99  0.002264  ( 0.012916  0.018293 -0.041983)
106:   1503.73   0.030054  151.88  0.006237  ( 0.063090  0.042999  0.020193)
107:   1541.54   0.031622  159.81  0.006401  ( 0.037553  0.036361 -0.060573)
108:   1620.41   0.030759  155.44  0.005924  (-0.070052  0.026455  0.017787)
109:   1649.74   0.051962  262.59  0.009829  ( 0.029063 -0.088779 -0.033207)
110:   1653.99   0.078765  398.05  0.014861  (-0.032029  0.080230  0.086013)
111:   1665.19   0.014696   74.27  0.002754  ( 0.037567  0.018845 -0.031427)
112:   1708.06   0.037749  190.77  0.006897  (-0.076640 -0.031046 -0.007695)
113:   1794.11   0.104778  529.51  0.018225  (-0.069170 -0.068013  0.093886)
114:   2295.05   0.249203  1259.37  0.033885  (-0.075112  0.081720  0.146850)
115:   2991.30   0.006498   32.84  0.000678  (-0.013042 -0.012999 -0.018406)
116:   3040.62   0.011872   60.00  0.001218  ( 0.010244 -0.003318  0.033203)
117:   3072.76   0.006547   33.08  0.000665  (-0.019146  0.014207 -0.009821)
118:   3087.84   0.002195   11.09  0.000222  ( 0.013606 -0.005667 -0.002140)
119:   3113.30   0.007350   37.14  0.000737  ( 0.011465 -0.023931 -0.005708)
120:   3143.10   0.000170    0.86  0.000017  (-0.003763 -0.001073 -0.001242)
121:   3156.23   0.003929   19.86  0.000388  (-0.004394 -0.015676 -0.011109)
122:   3167.79   0.003317   16.77  0.000327  (-0.014109 -0.008466  0.007489)
123:   3186.15   0.000820    4.15  0.000080  ( 0.004679  0.000565  0.007626)
124:   3189.04   0.002262   11.43  0.000221  ( 0.011307  0.002544 -0.009329)
125:   3189.62   0.002690   13.59  0.000263  (-0.014919  0.004274  0.004727)
126:   3196.15   0.001725    8.72  0.000168  (-0.010350 -0.003243 -0.007123)
127:   3213.06   0.000213    1.07  0.000021  (-0.002820 -0.003547 -0.000328)
128:   3214.31   0.003130   15.82  0.000304  (-0.011223 -0.006977  0.011367)
129:   3219.02   0.000548    2.77  0.000053  (-0.005760  0.002383  0.003782)
130:   3230.11   0.000313    1.58  0.000030  (-0.003048  0.000023 -0.004579)
131:   3247.86   0.000558    2.82  0.000054  ( 0.000511  0.006293  0.003710)

--------------------------
THERMOCHEMISTRY AT 298.15K
--------------------------

Temperature         ... 298.15 K
Pressure            ... 1.00 atm
Total Mass          ... 371.35 AMU

Throughout the following assumptions are being made:
  (1) The electronic state is orbitally nondegenerate
  (2) There are no thermally accessible electronically excited states
  (3) Hindered rotations indicated by low frequency modes are not
      treated as such but are treated as vibrations and this may
      cause some error
  (4) All equations used are the standard statistical mechanics
      equations for an ideal gas
  (5) All vibrations are strictly harmonic

freq.      23.31  E(vib)   ...       0.56
freq.      32.27  E(vib)   ...       0.55
freq.      48.40  E(vib)   ...       0.53
freq.      61.01  E(vib)   ...       0.51
freq.      71.17  E(vib)   ...       0.50
freq.      74.13  E(vib)   ...       0.49
freq.      87.12  E(vib)   ...       0.48
freq.      98.33  E(vib)   ...       0.46
freq.      99.43  E(vib)   ...       0.46
freq.     112.78  E(vib)   ...       0.45
freq.     119.44  E(vib)   ...       0.44
freq.     122.22  E(vib)   ...       0.43
freq.     146.91  E(vib)   ...       0.41
freq.     152.88  E(vib)   ...       0.40
freq.     177.25  E(vib)   ...       0.37
freq.     198.30  E(vib)   ...       0.35
freq.     205.13  E(vib)   ...       0.35
freq.     233.18  E(vib)   ...       0.32
freq.     244.59  E(vib)   ...       0.31
freq.     255.33  E(vib)   ...       0.30
freq.     283.56  E(vib)   ...       0.28
freq.     288.24  E(vib)   ...       0.27
freq.     300.94  E(vib)   ...       0.26
freq.     319.34  E(vib)   ...       0.25
freq.     361.11  E(vib)   ...       0.22
freq.     369.56  E(vib)   ...       0.21
freq.     381.99  E(vib)   ...       0.21
freq.     424.70  E(vib)   ...       0.18
freq.     445.53  E(vib)   ...       0.17
freq.     474.26  E(vib)   ...       0.15
freq.     487.36  E(vib)   ...       0.15
freq.     507.58  E(vib)   ...       0.14
freq.     552.12  E(vib)   ...       0.12
freq.     560.80  E(vib)   ...       0.11
freq.     565.46  E(vib)   ...       0.11
freq.     587.13  E(vib)   ...       0.10
freq.     599.27  E(vib)   ...       0.10
freq.     608.60  E(vib)   ...       0.10
freq.     619.28  E(vib)   ...       0.09
freq.     645.24  E(vib)   ...       0.09
freq.     666.41  E(vib)   ...       0.08
freq.     701.08  E(vib)   ...       0.07
freq.     711.32  E(vib)   ...       0.07
freq.     714.75  E(vib)   ...       0.07
freq.     755.23  E(vib)   ...       0.06
freq.     766.15  E(vib)   ...       0.06
freq.     773.74  E(vib)   ...       0.05
freq.     789.05  E(vib)   ...       0.05
freq.     799.16  E(vib)   ...       0.05
freq.     834.31  E(vib)   ...       0.04
freq.     841.67  E(vib)   ...       0.04
freq.     867.71  E(vib)   ...       0.04
freq.     871.97  E(vib)   ...       0.04
freq.     882.37  E(vib)   ...       0.04
freq.     924.82  E(vib)   ...       0.03
freq.     942.73  E(vib)   ...       0.03
freq.     956.47  E(vib)   ...       0.03
freq.     958.41  E(vib)   ...       0.03
freq.     988.73  E(vib)   ...       0.02
freq.     995.09  E(vib)   ...       0.02
freq.    1001.00  E(vib)   ...       0.02
freq.    1018.56  E(vib)   ...       0.02
freq.    1021.97  E(vib)   ...       0.02
freq.    1039.48  E(vib)   ...       0.02
freq.    1060.30  E(vib)   ...       0.02
freq.    1071.69  E(vib)   ...       0.02
freq.    1085.10  E(vib)   ...       0.02
freq.    1092.80  E(vib)   ...       0.02
freq.    1146.72  E(vib)   ...       0.01
freq.    1157.97  E(vib)   ...       0.01
freq.    1170.87  E(vib)   ...       0.01
freq.    1171.89  E(vib)   ...       0.01
freq.    1172.53  E(vib)   ...       0.01
freq.    1173.33  E(vib)   ...       0.01
freq.    1205.84  E(vib)   ...       0.01
freq.    1206.91  E(vib)   ...       0.01
freq.    1207.41  E(vib)   ...       0.01
freq.    1237.18  E(vib)   ...       0.01
freq.    1244.06  E(vib)   ...       0.01
freq.    1249.85  E(vib)   ...       0.01
freq.    1265.23  E(vib)   ...       0.01
freq.    1274.82  E(vib)   ...       0.01
freq.    1308.26  E(vib)   ...       0.01
freq.    1322.38  E(vib)   ...       0.01
freq.    1327.23  E(vib)   ...       0.01
freq.    1353.38  E(vib)   ...       0.01
freq.    1359.46  E(vib)   ...       0.01
freq.    1370.14  E(vib)   ...       0.01
freq.    1389.09  E(vib)   ...       0.00
freq.    1393.75  E(vib)   ...       0.00
freq.    1401.45  E(vib)   ...       0.00
freq.    1432.53  E(vib)   ...       0.00
freq.    1444.04  E(vib)   ...       0.00
freq.    1465.27  E(vib)   ...       0.00
freq.    1465.46  E(vib)   ...       0.00
freq.    1468.94  E(vib)   ...       0.00
freq.    1472.24  E(vib)   ...       0.00
freq.    1474.66  E(vib)   ...       0.00
freq.    1483.58  E(vib)   ...       0.00
freq.    1499.80  E(vib)   ...       0.00
freq.    1503.73  E(vib)   ...       0.00
freq.    1541.54  E(vib)   ...       0.00
freq.    1620.41  E(vib)   ...       0.00
freq.    1649.74  E(vib)   ...       0.00
freq.    1653.99  E(vib)   ...       0.00
freq.    1665.19  E(vib)   ...       0.00
freq.    1708.06  E(vib)   ...       0.00
freq.    1794.11  E(vib)   ...       0.00
freq.    2295.05  E(vib)   ...       0.00
freq.    2991.30  E(vib)   ...       0.00
freq.    3040.62  E(vib)   ...       0.00
freq.    3072.76  E(vib)   ...       0.00
freq.    3087.84  E(vib)   ...       0.00
freq.    3113.30  E(vib)   ...       0.00
freq.    3143.10  E(vib)   ...       0.00
freq.    3156.23  E(vib)   ...       0.00
freq.    3167.79  E(vib)   ...       0.00
freq.    3186.15  E(vib)   ...       0.00
freq.    3189.04  E(vib)   ...       0.00
freq.    3189.62  E(vib)   ...       0.00
freq.    3196.15  E(vib)   ...       0.00
freq.    3213.06  E(vib)   ...       0.00
freq.    3214.31  E(vib)   ...       0.00
freq.    3219.02  E(vib)   ...       0.00
freq.    3230.11  E(vib)   ...       0.00
freq.    3247.86  E(vib)   ...       0.00

------------
INNER ENERGY
------------

The inner energy is: U= E(el) + E(ZPE) + E(vib) + E(rot) + E(trans)
    E(el)   - is the total energy from the electronic structure calculation
              = E(kin-el) + E(nuc-el) + E(el-el) + E(nuc-nuc)
    E(ZPE)  - the the zero temperature vibrational energy from the frequency calculation
    E(vib)  - the the finite temperature correction to E(ZPE) due to population
              of excited vibrational states
    E(rot)  - is the rotational thermal energy
    E(trans)- is the translational thermal energy

Summary of contributions to the inner energy U:
Electronic energy                ...  -1306.82827207 Eh
Zero point energy                ...      0.33827059 Eh     212.27 kcal/mol
Thermal vibrational correction   ...      0.02117599 Eh      13.29 kcal/mol

Rotational constants in cm-1:     0.010072     0.006523     0.005410

                             ****ORCA TERMINATED NORMALLY****
TOTAL RUN TIME: 0 days 2 hours 1 minutes 15 seconds 58 msec
