                         Program Version 5.0.4 -  RELEASE  -
|  1> %pal nprocs 24 end
|  2> ! PBE0 D3BJ def2-TZVP TightSCF OPT FREQ TightOpt
|  3> ! CPCM(dmso)
|  4> %scf
|  5> MaxIter 800
|  6> end
|  7>
|  8> %geom
|  9> MaxIter 800
| 10> MaxStep 0.15
| 11> end
| 12>
| 13> *xyz 0 1
| 14> C       4.21316400      0.99955800      0.55393100
| 15> C       3.80159300      2.14090400     -0.23209500
| 16> C       2.50708200      2.18030200     -0.63698000
| 17> N       1.60086200      1.24670900     -0.24140900
| 18> C       1.85321200      0.25485800      0.78583900
| 19> C       3.33170100      0.08332000      1.00380300
| 20> C       0.30042700      1.11631900     -0.83118000
| 21> C      -0.66771300      2.16918200     -0.31365000
| 22> O      -0.49039000      2.84806100      0.66696100
| 23> O      -1.73833300      2.24031100     -1.09232300
| 24> C      -2.79555000      3.08563400     -0.65323200
| 25> H       5.27714800      0.85967100      0.76704900
| 26> H       2.12362000      2.94032400     -1.32318100
| 27> H       1.34443100      0.52995600      1.73752300
| 28> H       3.67136600     -0.78665900      1.56570400
| 29> H       0.35652000      1.23165400     -1.92399000
| 30> H      -3.58737000      3.00096200     -1.40538500
| 31> H      -2.45283400      4.12705700     -0.57621700
| 32> C       1.03894700     -0.97040800      0.26956100
| 33> C      -0.16845300     -0.33582100     -0.48164900
| 34> C      -1.47665500     -0.39215500      0.26840900
| 35> C      -1.59603800     -0.06305400      1.61914300
| 36> C      -2.83061600     -0.07931100      2.26916200
| 37> C      -3.97289100     -0.42748300      1.55392600
| 38> C      -3.88681200     -0.75738400      0.20139900
| 39> C      -2.64477000     -0.74027500     -0.44344100
| 40> O      -2.48285500     -1.04742500     -1.74679400
| 41> C      -3.60803800     -1.40216000     -2.51581600
| 42> N       1.97594500     -1.58547400     -0.84397600
| 43> O       1.96022000     -1.10938800     -1.95568200
| 44> H      -0.31173100     -0.86406100     -1.42807300
| 45> H      -0.70337500      0.21292600      2.18232500
| 46> H      -2.89441300      0.18041000      3.32798200
| 47> H      -4.94861900     -0.44415900      2.04617400
| 48> H      -4.79042700     -1.02594500     -0.34588500
| 49> H      -4.09967400     -2.30646600     -2.12032500
| 50> H      -3.24064900     -1.60570000     -3.52899600
| 51> H      -4.34309700     -0.58118300     -2.55518900
| 52> O       2.70689000     -2.48172000     -0.48930900
| 53> H      -3.16681300      2.75239200      0.32681100
| 54> H       4.51152200      2.89878600     -0.56058200
| 55> N       0.70735300     -1.93932200      1.21763500
| 56> C      -0.00606500     -3.09970300      0.73494500
| 57> H      -0.70051500     -2.82071900     -0.06873500
| 58> H       0.67427800     -3.88072100      0.34461400
| 59> H      -0.59877500     -3.53589200      1.55343700
| 60> C       1.52339800     -2.18823100      2.38213400
| 61> H       1.83909900     -1.24991300      2.85571800
| 62> H       0.91169400     -2.72944900      3.11984700
| 63> H       2.42084900     -2.79882700      2.16935300
| 64> *
| 65>
| 66>                          ****END OF INPUT****
 Total Charge           Charge          ....    0
 Multiplicity           Mult            ....    1
 Number of Electrons    NEL             ....  198
Dispersion correction           -0.067611364
FINAL SINGLE POINT ENERGY     -1277.211614298588
Dispersion correction            ... done
Dispersion correction           -0.067562005
FINAL SINGLE POINT ENERGY     -1277.213386084658
Dispersion correction            ... done
Dispersion correction           -0.067914361
FINAL SINGLE POINT ENERGY     -1277.212478110986
Dispersion correction            ... done
FINAL SINGLE POINT ENERGY     -1277.213373803018
FINAL SINGLE POINT ENERGY     -1277.212770954186
FINAL SINGLE POINT ENERGY     -1277.213574555163
FINAL SINGLE POINT ENERGY     -1277.213584130193
FINAL SINGLE POINT ENERGY     -1277.213602977162
FINAL SINGLE POINT ENERGY     -1277.213622553166
FINAL SINGLE POINT ENERGY     -1277.213634449228
FINAL SINGLE POINT ENERGY     -1277.213648240375
FINAL SINGLE POINT ENERGY     -1277.213651290770
FINAL SINGLE POINT ENERGY     -1277.213650757478
FINAL SINGLE POINT ENERGY     -1277.213647733522
FINAL SINGLE POINT ENERGY     -1277.213645255493
Dispersion correction           -0.067621702
FINAL SINGLE POINT ENERGY     -1277.213644181983
Dispersion correction            ... done
Dispersion correction           -0.067617761
FINAL SINGLE POINT ENERGY     -1277.213644405566
Dispersion correction            ... done
                    ***********************HURRAY********************

CARTESIAN COORDINATES (ANGSTROEM)
---------------------------------
  C      4.202475    1.001893    0.570817
  C      3.766104    2.189993   -0.118146
  C      2.481912    2.227092   -0.532165
  N      1.600703    1.248030   -0.213818
  C      1.864565    0.230009    0.780063
  C      3.343919    0.047207    0.955175
  C      0.309920    1.125791   -0.820058
  C     -0.664958    2.184494   -0.330255
  O     -0.510718    2.868471    0.648996
  O     -1.709421    2.256938   -1.142642
  C     -2.772156    3.122214   -0.733304
  H      5.263360    0.858848    0.748788
  H      2.091279    3.013165   -1.168683
  H      1.386978    0.486920    1.743391
  H      3.694398   -0.859509    1.428669
  H      0.386947    1.237662   -1.904305
  H     -3.541814    3.023439   -1.494160
  H     -2.421997    4.152808   -0.676258
  C      1.032208   -0.972742    0.262075
  C     -0.170133   -0.322500   -0.482825
  C     -1.475790   -0.379410    0.265955
  C     -1.592640   -0.038055    1.606467
  C     -2.815166   -0.066391    2.262557
  C     -3.950525   -0.441504    1.563906
  C     -3.868365   -0.783643    0.221564
  C     -2.637955   -0.752189   -0.428602
  O     -2.484680   -1.064968   -1.734645
  C     -3.629137   -1.449256   -2.472117
  N      1.955842   -1.606923   -0.874697
  O      1.946010   -1.121974   -1.983869
  H     -0.312540   -0.836157   -1.427972
  H     -0.708246    0.258022    2.156063
  H     -2.875076    0.204605    3.309737
  H     -4.914651   -0.468367    2.059147
  H     -4.764020   -1.070020   -0.312529
  H     -4.083959   -2.352315   -2.055031
  H     -3.280727   -1.651080   -3.482881
  H     -4.370797   -0.645840   -2.494825
  O      2.658611   -2.532875   -0.539206
  H     -3.154757    2.807958    0.238246
  H      4.454362    2.977588   -0.387142
  N      0.696589   -1.930497    1.210852
  C     -0.041008   -3.084940    0.748188
  H     -0.700369   -2.815274   -0.076089
  H      0.624836   -3.888368    0.406613
  H     -0.657323   -3.470086    1.563517
  C      1.545142   -2.208227    2.346976
  H      1.899442   -1.287750    2.808118
  H      0.942747   -2.733708    3.091098
  H      2.408429   -2.838292    2.098533

 Multiplicity           Mult            ....    1
 Number of Electrons    NEL             ....  198
 Basis Dimension        Dim             ....  975

ORBITAL ENERGIES
----------------

  NO   OCC          E(Eh)            E(eV)
   0   2.0000     -19.264095      -524.2027
   1   2.0000     -19.248075      -523.7668
   2   2.0000     -19.246957      -523.7363
   3   2.0000     -19.245422      -523.6945
   4   2.0000     -19.205022      -522.5952
   5   2.0000     -14.608772      -397.5249
   6   2.0000     -14.421122      -392.4187
   7   2.0000     -14.400014      -391.8443
   8   2.0000     -10.357907      -281.8530
   9   2.0000     -10.327505      -281.0257
  10   2.0000     -10.290632      -280.0223
  11   2.0000     -10.287777      -279.9446
  12   2.0000     -10.284355      -279.8515
  13   2.0000     -10.270534      -279.4754
  14   2.0000     -10.266613      -279.3687
  15   2.0000     -10.263415      -279.2817
  16   2.0000     -10.258809      -279.1564
  17   2.0000     -10.239984      -278.6441
  18   2.0000     -10.239971      -278.6438
  19   2.0000     -10.239103      -278.6202
  20   2.0000     -10.229111      -278.3483
  21   2.0000     -10.228803      -278.3399
  22   2.0000     -10.228152      -278.3222
  23   2.0000     -10.224308      -278.2176
  24   2.0000     -10.221548      -278.1425
  25   2.0000     -10.219923      -278.0983
  26   2.0000     -10.206243      -277.7260
  27   2.0000      -1.275306       -34.7029
  28   2.0000      -1.154139       -31.4057
  29   2.0000      -1.108042       -30.1513
  30   2.0000      -1.098991       -29.9051
  31   2.0000      -1.062824       -28.9209
  32   2.0000      -1.022018       -27.8105
  33   2.0000      -0.983646       -26.7664
  34   2.0000      -0.893989       -24.3267
  35   2.0000      -0.862908       -23.4809
  36   2.0000      -0.842393       -22.9227
  37   2.0000      -0.810853       -22.0644
  38   2.0000      -0.785188       -21.3660
  39   2.0000      -0.777987       -21.1701
  40   2.0000      -0.772619       -21.0240
  41   2.0000      -0.745896       -20.2969
  42   2.0000      -0.736128       -20.0311
  43   2.0000      -0.720305       -19.6005
  44   2.0000      -0.699077       -19.0229
  45   2.0000      -0.683446       -18.5975
  46   2.0000      -0.666435       -18.1346
  47   2.0000      -0.646400       -17.5894
  48   2.0000      -0.623737       -16.9728
  49   2.0000      -0.616047       -16.7635
  50   2.0000      -0.597817       -16.2674
  51   2.0000      -0.591903       -16.1065
  52   2.0000      -0.573712       -15.6115
  53   2.0000      -0.567516       -15.4429
  54   2.0000      -0.557263       -15.1639
  55   2.0000      -0.545156       -14.8345
  56   2.0000      -0.542850       -14.7717
  57   2.0000      -0.535692       -14.5769
  58   2.0000      -0.520606       -14.1664
  59   2.0000      -0.516109       -14.0440
  60   2.0000      -0.513856       -13.9827
  61   2.0000      -0.503830       -13.7099
  62   2.0000      -0.501826       -13.6554
  63   2.0000      -0.489413       -13.3176
  64   2.0000      -0.487228       -13.2581
  65   2.0000      -0.480589       -13.0775
  66   2.0000      -0.478011       -13.0074
  67   2.0000      -0.467331       -12.7167
  68   2.0000      -0.459691       -12.5088
  69   2.0000      -0.457348       -12.4451
  70   2.0000      -0.446903       -12.1609
  71   2.0000      -0.440712       -11.9924
  72   2.0000      -0.432615       -11.7721
  73   2.0000      -0.430984       -11.7277
  74   2.0000      -0.422335       -11.4923
  75   2.0000      -0.414438       -11.2774
  76   2.0000      -0.407066       -11.0768
  77   2.0000      -0.403049       -10.9675
  78   2.0000      -0.397777       -10.8241
  79   2.0000      -0.390529       -10.6268
  80   2.0000      -0.386121       -10.5069
  81   2.0000      -0.381717       -10.3870
  82   2.0000      -0.377233       -10.2650
  83   2.0000      -0.374710       -10.1964
  84   2.0000      -0.364143        -9.9088
  85   2.0000      -0.359360        -9.7787
  86   2.0000      -0.355625        -9.6771
  87   2.0000      -0.344647        -9.3783
  88   2.0000      -0.342184        -9.3113
  89   2.0000      -0.339467        -9.2374
  90   2.0000      -0.332658        -9.0521
  91   2.0000      -0.329879        -8.9765
  92   2.0000      -0.320594        -8.7238
  93   2.0000      -0.309777        -8.4295
  94   2.0000      -0.293835        -7.9957
  95   2.0000      -0.270148        -7.3511
  96   2.0000      -0.241382        -6.5683
  97   2.0000      -0.238253        -6.4832
  98   2.0000      -0.198906        -5.4125
  99   0.0000      -0.064165        -1.7460
 100   0.0000      -0.026248        -0.7142
 101   0.0000      -0.016085        -0.4377
 102   0.0000      -0.004570        -0.1244
 103   0.0000       0.009675         0.2633

MULLIKEN ATOMIC CHARGES
-----------------------
   0 C :   -0.156981
   1 C :   -0.248767
   2 C :   -0.143704
   3 N :    0.029580
   4 C :    0.047553
   5 C :   -0.309746
   6 C :   -0.037766
   7 C :    0.251937
   8 O :   -0.376045
   9 O :   -0.220963
  10 C :   -0.261641
  11 H :    0.150359
  12 H :    0.173093
  13 H :    0.138869
  14 H :    0.171612
  15 H :    0.129154
  16 H :    0.162975
  17 H :    0.158270
  18 C :   -0.189801
  19 C :    0.339314
  20 C :   -0.218754
  21 C :   -0.119246
  22 C :   -0.218867
  23 C :   -0.145848
  24 C :   -0.313465
  25 C :    0.285868
  26 O :   -0.265760
  27 C :   -0.282186
  28 N :    0.466430
  29 O :   -0.346046
  30 H :    0.145214
  31 H :    0.133194
  32 H :    0.143978
  33 H :    0.150442
  34 H :    0.160922
  35 H :    0.150275
  36 H :    0.162166
  37 H :    0.150873
  38 O :   -0.348259
  39 H :    0.155941
  40 H :    0.154482
  41 N :   -0.032658
  42 C :   -0.325891
  43 H :    0.160086
  44 H :    0.134007
  45 H :    0.147714
  46 C :   -0.348814
  47 H :    0.167072
  48 H :    0.155651
  49 H :    0.134177
Sum of atomic charges:   -0.0000000

LOEWDIN ATOMIC CHARGES
----------------------
   0 C :   -0.166977
   1 C :   -0.229209
   2 C :   -0.184018
   3 N :    0.259605
   4 C :   -0.194808
   5 C :   -0.168888
   6 C :   -0.186781
   7 C :   -0.480430
   8 O :    0.092865
   9 O :    0.276951
  10 C :   -0.302950
  11 H :    0.155521
  12 H :    0.161164
  13 H :    0.165537
  14 H :    0.152124
  15 H :    0.177076
  16 H :    0.122867
  17 H :    0.119880
  18 C :   -0.252531
  19 C :   -0.120429
  20 C :   -0.116873
  21 C :   -0.104451
  22 C :   -0.168267
  23 C :   -0.146318
  24 C :   -0.143945
  25 C :   -0.235182
  26 O :    0.246457
  27 C :   -0.326210
  28 N :   -0.044374
  29 O :   -0.029943
  30 H :    0.178925
  31 H :    0.157322
  32 H :    0.151707
  33 H :    0.154166
  34 H :    0.159982
  35 H :    0.117154
  36 H :    0.121658
  37 H :    0.117194
  38 O :   -0.026941
  39 H :    0.120030
  40 H :    0.148776
  41 N :    0.132180
  42 C :   -0.300114
  43 H :    0.135052
  44 H :    0.114529
  45 H :    0.126708
  46 C :   -0.307527
  47 H :    0.130170
  48 H :    0.128476
  49 H :    0.113092

  Mayer bond orders larger than 0.100000
B(  0-C ,  1-C ) :   1.0982 B(  0-C ,  5-C ) :   1.8871 B(  0-C , 11-H ) :   0.9567
B(  1-C ,  2-C ) :   1.6686 B(  1-C , 40-H ) :   0.9715 B(  2-C ,  3-N ) :   1.1892
B(  2-C , 12-H ) :   0.9475 B(  3-N ,  4-C ) :   0.9290 B(  3-N ,  6-C ) :   1.0254
B(  4-C ,  5-C ) :   0.9066 B(  4-C , 13-H ) :   0.9024 B(  4-C , 18-C ) :   0.9547
B(  5-C , 14-H ) :   0.9421 B(  6-C ,  7-C ) :   0.9134 B(  6-C , 15-H ) :   0.9196
B(  6-C , 19-C ) :   1.0064 B(  7-C ,  8-O ) :   2.0214 B(  7-C ,  9-O ) :   1.2720
B(  9-O , 10-C ) :   0.8838 B( 10-C , 16-H ) :   0.9649 B( 10-C , 17-H ) :   0.9621
B( 10-C , 39-H ) :   0.9680 B( 18-C , 19-C ) :   0.8910 B( 18-C , 20-C ) :   0.1217
B( 18-C , 28-N ) :   0.7400 B( 18-C , 41-N ) :   1.2356 B( 19-C , 20-C ) :   0.7557
B( 19-C , 30-H ) :   0.9074 B( 20-C , 21-C ) :   1.3277 B( 20-C , 25-C ) :   1.3413
B( 21-C , 22-C ) :   1.4077 B( 21-C , 31-H ) :   0.9754 B( 22-C , 23-C ) :   1.3940
B( 22-C , 32-H ) :   0.9861 B( 23-C , 24-C ) :   1.3851 B( 23-C , 33-H ) :   0.9702
B( 24-C , 25-C ) :   1.3838 B( 24-C , 34-H ) :   0.9656 B( 25-C , 26-O ) :   1.0844
B( 26-O , 27-C ) :   0.9437 B( 27-C , 35-H ) :   0.9627 B( 27-C , 36-H ) :   0.9642
B( 27-C , 37-H ) :   0.9621 B( 28-N , 29-O ) :   1.6069 B( 28-N , 38-O ) :   1.5971
B( 29-O , 38-O ) :   0.1960 B( 41-N , 42-C ) :   0.9504 B( 41-N , 46-C ) :   0.9366
B( 42-C , 43-H ) :   0.9603 B( 42-C , 44-H ) :   0.9556 B( 42-C , 45-H ) :   0.9634
B( 46-C , 47-H ) :   0.9583 B( 46-C , 48-H ) :   0.9584 B( 46-C , 49-H ) :   0.9550

Dispersion correction           -0.067616359
FINAL SINGLE POINT ENERGY     -1277.213644419652

DIPOLE MOMENT
-------------
                                X             Y             Z
Electronic contribution:      7.96179       4.62416      -5.61241
Nuclear contribution   :    -10.92068      -4.84469       5.72229
                        -----------------------------------------
Total Dipole Moment    :     -2.95889      -0.22053       0.10988
                        -----------------------------------------
Magnitude (a.u.)       :      2.96913
Magnitude (Debye)      :      7.54693

Dispersion correction in the Hessian             ... done   (      0.8 sec)

VIBRATIONAL FREQUENCIES
-----------------------

Scaling factor for frequencies =  1.000000000  (already applied!)

   0:         0.00 cm**-1
   1:         0.00 cm**-1
   2:         0.00 cm**-1
   3:         0.00 cm**-1
   4:         0.00 cm**-1
   5:         0.00 cm**-1
   6:        17.61 cm**-1
   7:        26.86 cm**-1
   8:        45.21 cm**-1
   9:        58.24 cm**-1
  10:        59.00 cm**-1
  11:        72.14 cm**-1
  12:        87.90 cm**-1
  13:        92.19 cm**-1
  14:       103.64 cm**-1
  15:       125.99 cm**-1
  16:       130.72 cm**-1
  17:       143.60 cm**-1
  18:       147.89 cm**-1
  19:       161.60 cm**-1
  20:       164.04 cm**-1
  21:       180.32 cm**-1
  22:       183.40 cm**-1
  23:       200.09 cm**-1
  24:       218.87 cm**-1
  25:       224.24 cm**-1
  26:       237.10 cm**-1
  27:       246.34 cm**-1
  28:       262.45 cm**-1
  29:       287.94 cm**-1
  30:       303.19 cm**-1
  31:       307.24 cm**-1
  32:       325.51 cm**-1
  33:       358.73 cm**-1
  34:       364.36 cm**-1
  35:       377.21 cm**-1
  36:       391.08 cm**-1
  37:       421.72 cm**-1
  38:       437.06 cm**-1
  39:       483.26 cm**-1
  40:       487.83 cm**-1
  41:       520.23 cm**-1
  42:       543.78 cm**-1
  43:       560.85 cm**-1
  44:       581.06 cm**-1
  45:       595.74 cm**-1
  46:       618.96 cm**-1
  47:       628.41 cm**-1
  48:       633.15 cm**-1
  49:       691.58 cm**-1
  50:       706.79 cm**-1
  51:       718.29 cm**-1
  52:       732.93 cm**-1
  53:       743.19 cm**-1
  54:       764.26 cm**-1
  55:       777.17 cm**-1
  56:       796.09 cm**-1
  57:       826.56 cm**-1
  58:       845.91 cm**-1
  59:       858.77 cm**-1
  60:       865.82 cm**-1
  61:       873.54 cm**-1
  62:       920.18 cm**-1
  63:       940.53 cm**-1
  64:       952.71 cm**-1
  65:       957.52 cm**-1
  66:       961.64 cm**-1
  67:       988.17 cm**-1
  68:       990.18 cm**-1
  69:      1006.31 cm**-1
  70:      1019.13 cm**-1
  71:      1031.02 cm**-1
  72:      1043.09 cm**-1
  73:      1059.54 cm**-1
  74:      1075.01 cm**-1
  75:      1085.10 cm**-1
  76:      1088.08 cm**-1
  77:      1112.40 cm**-1
  78:      1133.88 cm**-1
  79:      1144.28 cm**-1
  80:      1155.42 cm**-1
  81:      1160.02 cm**-1
  82:      1170.50 cm**-1
  83:      1171.31 cm**-1
  84:      1175.90 cm**-1
  85:      1185.13 cm**-1
  86:      1199.08 cm**-1
  87:      1199.33 cm**-1
  88:      1205.94 cm**-1
  89:      1221.37 cm**-1
  90:      1239.72 cm**-1
  91:      1252.19 cm**-1
  92:      1268.33 cm**-1
  93:      1291.15 cm**-1
  94:      1298.92 cm**-1
  95:      1305.54 cm**-1
  96:      1324.76 cm**-1
  97:      1330.25 cm**-1
  98:      1335.03 cm**-1
  99:      1341.94 cm**-1
 100:      1374.21 cm**-1
 101:      1388.38 cm**-1
 102:      1394.02 cm**-1
 103:      1403.86 cm**-1
 104:      1428.83 cm**-1
 105:      1439.85 cm**-1
 106:      1445.37 cm**-1
 107:      1459.33 cm**-1
 108:      1465.07 cm**-1
 109:      1466.76 cm**-1
 110:      1467.84 cm**-1
 111:      1471.26 cm**-1
 112:      1471.97 cm**-1
 113:      1472.97 cm**-1
 114:      1475.02 cm**-1
 115:      1484.96 cm**-1
 116:      1490.45 cm**-1
 117:      1496.93 cm**-1
 118:      1498.49 cm**-1
 119:      1516.54 cm**-1
 120:      1538.45 cm**-1
 121:      1620.12 cm**-1
 122:      1635.12 cm**-1
 123:      1647.83 cm**-1
 124:      1664.46 cm**-1
 125:      1704.16 cm**-1
 126:      1796.86 cm**-1
 127:      2914.26 cm**-1
 128:      3009.73 cm**-1
 129:      3016.49 cm**-1
 130:      3036.92 cm**-1
 131:      3071.41 cm**-1
 132:      3087.94 cm**-1
 133:      3091.97 cm**-1
 134:      3098.87 cm**-1
 135:      3108.15 cm**-1
 136:      3151.53 cm**-1
 137:      3152.55 cm**-1
 138:      3155.41 cm**-1
 139:      3166.02 cm**-1
 140:      3171.79 cm**-1
 141:      3186.19 cm**-1
 142:      3189.45 cm**-1
 143:      3193.14 cm**-1
 144:      3205.84 cm**-1
 145:      3207.20 cm**-1
 146:      3220.56 cm**-1
 147:      3231.80 cm**-1
 148:      3232.62 cm**-1
 149:      3246.08 cm**-1

IR SPECTRUM
-----------

 Mode   freq       eps      Int      T**2         TX        TY        TZ
       cm**-1   L/(mol*cm) km/mol    a.u.
----------------------------------------------------------------------------
  6:     17.61   0.000182    0.92  0.003219  (-0.009487  0.055876 -0.002552)
  7:     26.86   0.000065    0.33  0.000757  (-0.003423 -0.025318  0.010234)
  8:     45.21   0.000411    2.08  0.002834  ( 0.015603 -0.046493 -0.020724)
  9:     58.24   0.000198    1.00  0.001060  (-0.028684 -0.013611  0.007237)
 10:     59.00   0.000010    0.05  0.000055  (-0.000565 -0.007326  0.000745)
 11:     72.14   0.000390    1.97  0.001686  ( 0.028507  0.019637 -0.022084)
 12:     87.90   0.000325    1.64  0.001153  (-0.020559  0.026837 -0.003250)
 13:     92.19   0.000599    3.03  0.002027  ( 0.026097 -0.035690  0.008480)
 14:    103.64   0.001422    7.19  0.004283  ( 0.007988  0.062751 -0.016769)
 15:    125.99   0.000139    0.70  0.000345  ( 0.004569  0.009340 -0.015405)
 16:    130.72   0.000328    1.66  0.000784  (-0.008296  0.001954 -0.026673)
 17:    143.60   0.000436    2.20  0.000948  (-0.004889 -0.029842  0.005760)
 18:    147.89   0.000064    0.32  0.000134  ( 0.008746  0.005809 -0.004880)
 19:    161.60   0.000896    4.53  0.001731  (-0.036280 -0.008747  0.018389)
 20:    164.04   0.000709    3.58  0.001349  (-0.028382 -0.023221  0.001969)
 21:    180.32   0.000154    0.78  0.000266  ( 0.001320  0.016234 -0.001040)
 22:    183.40   0.000070    0.36  0.000120  (-0.000536  0.006939  0.008452)
 23:    200.09   0.000269    1.36  0.000419  (-0.001038  0.020375  0.001713)
 24:    218.87   0.001612    8.15  0.002299  (-0.038478  0.019838 -0.020609)
 25:    224.24   0.003381   17.09  0.004705  ( 0.047011  0.011941 -0.048503)
 26:    237.10   0.002202   11.13  0.002899  (-0.031413 -0.022455  0.037520)
 27:    246.34   0.002330   11.77  0.002951  ( 0.026907  0.005002  0.046930)
 28:    262.45   0.000146    0.74  0.000173  (-0.006623 -0.010281  0.004883)
 29:    287.94   0.000363    1.83  0.000393  ( 0.014167 -0.009278  0.010306)
 30:    303.19   0.002588   13.08  0.002664  (-0.040414 -0.004525  0.031782)
 31:    307.24   0.000304    1.54  0.000309  (-0.002354  0.017119 -0.003192)
 32:    325.51   0.000559    2.83  0.000536  ( 0.014685  0.007313 -0.016348)
 33:    358.73   0.001672    8.45  0.001455  (-0.001901  0.035508  0.013787)
 34:    364.36   0.003201   16.18  0.002742  ( 0.033384 -0.015824  0.037109)
 35:    377.21   0.002015   10.18  0.001667  (-0.040690 -0.003197  0.000975)
 36:    391.08   0.003147   15.90  0.002511  (-0.001943 -0.043423 -0.024935)
 37:    421.72   0.004280   21.63  0.003167  ( 0.008076 -0.011092  0.054577)
 38:    437.06   0.001135    5.74  0.000810  ( 0.024959  0.012725  0.005056)
 39:    483.26   0.000990    5.01  0.000640  ( 0.012465  0.005258 -0.021368)
 40:    487.83   0.000833    4.21  0.000533  (-0.020684  0.009375 -0.004127)
 41:    520.23   0.003879   19.60  0.002327  (-0.020749 -0.001954  0.043501)
 42:    543.78   0.003502   17.70  0.002010  ( 0.000453  0.040903 -0.018343)
 43:    560.85   0.009105   46.01  0.005066  (-0.029227  0.020543  0.061562)
 44:    581.06   0.002135   10.79  0.001147  ( 0.030277 -0.000908  0.015144)
 45:    595.74   0.004946   25.00  0.002591  (-0.020593 -0.035068 -0.030611)
 46:    618.96   0.005846   29.54  0.002947  ( 0.034908 -0.037911  0.017069)
 47:    628.41   0.001138    5.75  0.000565  ( 0.022293 -0.008072 -0.001686)
 48:    633.15   0.001934    9.78  0.000953  (-0.008129 -0.003793 -0.029546)
 49:    691.58   0.007400   37.40  0.003339  ( 0.028990 -0.043980 -0.023761)
 50:    706.79   0.022371  113.05  0.009877  ( 0.001838 -0.046283 -0.087931)
 51:    718.29   0.000701    3.54  0.000305  (-0.017206  0.001327  0.002591)
 52:    732.93   0.003183   16.08  0.001355  (-0.027750  0.006866  0.023192)
 53:    743.19   0.001424    7.20  0.000598  (-0.009826  0.003862  0.022055)
 54:    764.26   0.016993   85.87  0.006938  ( 0.000554  0.076943 -0.031905)
 55:    777.17   0.006729   34.01  0.002702  ( 0.019637 -0.046870  0.010940)
 56:    796.09   0.006264   31.66  0.002456  ( 0.000302 -0.015010 -0.047225)
 57:    826.56   0.004689   23.69  0.001770  ( 0.028649 -0.019032 -0.024232)
 58:    845.91   0.005236   26.46  0.001932  ( 0.031670  0.030123 -0.004597)
 59:    858.77   0.007954   40.20  0.002890  ( 0.004604 -0.048920 -0.021820)
 60:    865.82   0.004191   21.18  0.001510  (-0.031059  0.021498  0.009148)
 61:    873.54   0.000690    3.49  0.000247  (-0.011116 -0.003876 -0.010391)
 62:    920.18   0.002617   13.23  0.000888  ( 0.013887  0.008846 -0.024829)
 63:    940.53   0.000803    4.06  0.000267  (-0.016316 -0.000419  0.000356)
 64:    952.71   0.000336    1.70  0.000110  (-0.005153  0.001961 -0.008917)
 65:    957.52   0.002435   12.30  0.000794  ( 0.014736  0.023551 -0.004662)
 66:    961.64   0.001500    7.58  0.000487  ( 0.016570  0.009818  0.010760)
 67:    988.17   0.000023    0.11  0.000007  (-0.001629  0.001727 -0.001213)
 68:    990.18   0.000241    1.22  0.000076  (-0.007371 -0.004323  0.001695)
 69:   1006.31   0.005531   27.95  0.001715  (-0.000994 -0.035464  0.021364)
 70:   1019.13   0.001803    9.11  0.000552  (-0.020413 -0.007417 -0.008968)
 71:   1031.02   0.003994   20.18  0.001209  (-0.015023  0.031336 -0.001121)
 72:   1043.09   0.010519   53.16  0.003147  (-0.039716  0.039189 -0.005810)
 73:   1059.54   0.005691   28.76  0.001676  (-0.005778  0.019252 -0.035668)
 74:   1075.01   0.009868   49.87  0.002864  (-0.050629 -0.011564 -0.012942)
 75:   1085.10   0.004440   22.44  0.001277  ( 0.027195  0.012054  0.019803)
 76:   1088.08   0.005015   25.34  0.001438  ( 0.000419  0.011638  0.036094)
 77:   1112.40   0.000726    3.67  0.000204  ( 0.014218  0.001081  0.000623)
 78:   1133.88   0.011361   57.42  0.003127  (-0.020386 -0.025355 -0.045480)
 79:   1144.28   0.004365   22.06  0.001190  ( 0.017049  0.021493  0.020922)
 80:   1155.42   0.008169   41.28  0.002206  (-0.024250  0.031346 -0.025211)
 81:   1160.02   0.003707   18.74  0.000997  (-0.014632 -0.011255  0.025623)
 82:   1170.50   0.000389    1.97  0.000104  ( 0.001032 -0.008461  0.005574)
 83:   1171.31   0.000180    0.91  0.000048  (-0.000312  0.006788 -0.001328)
 84:   1175.90   0.002015   10.18  0.000535  ( 0.020381  0.000501  0.010915)
 85:   1185.13   0.017997   90.95  0.004739  ( 0.008907 -0.055664  0.039509)
 86:   1199.08   0.000295    1.49  0.000077  (-0.006071 -0.005451 -0.003181)
 87:   1199.33   0.002637   13.33  0.000686  ( 0.004255  0.025723  0.002527)
 88:   1205.94   0.006199   31.33  0.001604  ( 0.038930 -0.006623  0.006676)
 89:   1221.37   0.001592    8.05  0.000407  (-0.015609  0.001801 -0.012647)
 90:   1239.72   0.007311   36.95  0.001840  (-0.035600 -0.014805 -0.018812)
 91:   1252.19   0.114902  580.67  0.028635  (-0.151401  0.063082 -0.041633)
 92:   1268.33   0.003736   18.88  0.000919  (-0.016553 -0.024270  0.007496)
 93:   1291.15   0.018524   93.61  0.004477  ( 0.020623 -0.004093  0.063523)
 94:   1298.92   0.031531  159.35  0.007575  ( 0.000301  0.039022  0.077798)
 95:   1305.54   0.055075  278.33  0.013165  (-0.072366 -0.022791 -0.086071)
 96:   1324.76   0.002476   12.51  0.000583  ( 0.001506  0.023318 -0.006111)
 97:   1330.25   0.012238   61.85  0.002871  (-0.053376  0.004061 -0.002348)
 98:   1335.03   0.007687   38.85  0.001797  (-0.032882 -0.013336 -0.023192)
 99:   1341.94   0.014010   70.80  0.003258  (-0.057000 -0.001693  0.002476)
100:   1374.21   0.018877   95.40  0.004287  ( 0.063789 -0.006612  0.013192)
101:   1388.38   0.007719   39.01  0.001735  (-0.012960  0.004866 -0.039286)
102:   1394.02   0.005801   29.32  0.001299  ( 0.021517  0.026649  0.011200)
103:   1403.86   0.017002   85.92  0.003779  ( 0.004551 -0.029689  0.053639)
104:   1428.83   0.018801   95.01  0.004106  ( 0.048028  0.041063 -0.010642)
105:   1439.85   0.000366    1.85  0.000079  ( 0.008237 -0.001073 -0.003227)
106:   1445.37   0.029537  149.27  0.006377  ( 0.049893 -0.045336 -0.042808)
107:   1459.33   0.004890   24.71  0.001046  ( 0.029605 -0.012327 -0.004157)
108:   1465.07   0.004152   20.98  0.000884  ( 0.001904  0.028956 -0.006504)
109:   1466.76   0.008203   41.46  0.001745  (-0.016928  0.014282  0.035422)
110:   1467.84   0.004650   23.50  0.000988  (-0.028533  0.012124 -0.005230)
111:   1471.26   0.003905   19.74  0.000828  ( 0.009685 -0.001040 -0.027082)
112:   1471.97   0.003597   18.18  0.000763  ( 0.016505  0.001166  0.022110)
113:   1472.97   0.001924    9.72  0.000408  (-0.012471  0.015628  0.002786)
114:   1475.02   0.002949   14.90  0.000624  (-0.003870  0.022040 -0.011095)
115:   1484.96   0.004708   23.79  0.000989  ( 0.003338 -0.007558 -0.030351)
116:   1490.45   0.002431   12.28  0.000509  ( 0.007458 -0.002312 -0.021165)
117:   1496.93   0.023228  117.39  0.004842  (-0.058566 -0.036557 -0.008712)
118:   1498.49   0.013407   67.75  0.002792  (-0.006256  0.012725  0.050901)
119:   1516.54   0.029478  148.97  0.006066  (-0.018231 -0.055419  0.051597)
120:   1538.45   0.035188  177.83  0.007138  (-0.000319  0.021998  0.081570)
121:   1620.12   0.020274  102.46  0.003905  ( 0.059799  0.016063 -0.008437)
122:   1635.12   0.135640  685.47  0.025887  ( 0.075936 -0.100655  0.099945)
123:   1647.83   0.013807   69.78  0.002615  (-0.033273  0.003657 -0.038656)
124:   1664.46   0.014565   73.61  0.002731  (-0.000371  0.008619  0.051540)
125:   1704.16   0.032604  164.77  0.005970  ( 0.070919  0.030492 -0.003344)
126:   1796.86   0.086916  439.24  0.015095  ( 0.047446  0.062243  0.094708)
127:   2914.26   0.026739  135.13  0.002863  ( 0.031748  0.014524 -0.040551)
128:   3009.73   0.013806   69.77  0.001431  (-0.011687 -0.030557 -0.019002)
129:   3016.49   0.024859  125.63  0.002572  ( 0.031533 -0.035715  0.017373)
130:   3036.92   0.012825   64.81  0.001318  ( 0.027403  0.010535  0.021352)
131:   3071.41   0.006144   31.05  0.000624  (-0.019730  0.015141  0.002392)
132:   3087.94   0.005331   26.94  0.000539  (-0.016935  0.003901 -0.015387)
133:   3091.97   0.011120   56.19  0.001122  (-0.027479 -0.001230  0.019123)
134:   3098.87   0.003691   18.65  0.000372  ( 0.009111 -0.001250 -0.016945)
135:   3108.15   0.007564   38.22  0.000759  ( 0.004282 -0.026354  0.006822)
136:   3151.53   0.003676   18.58  0.000364  ( 0.007268 -0.006654  0.016336)
137:   3152.55   0.005206   26.31  0.000515  (-0.006457 -0.021763  0.000080)
138:   3155.41   0.003838   19.40  0.000380  ( 0.007271  0.014762 -0.010431)
139:   3166.02   0.003889   19.65  0.000383  (-0.007292  0.003498  0.017829)
140:   3171.79   0.000814    4.11  0.000080  ( 0.005317  0.000338  0.007190)
141:   3186.19   0.003525   17.81  0.000345  ( 0.017018 -0.005063  0.005473)
142:   3189.45   0.002182   11.03  0.000213  (-0.009015 -0.002947 -0.011114)
143:   3193.14   0.000471    2.38  0.000046  ( 0.006617  0.000627 -0.001372)
144:   3205.84   0.000276    1.39  0.000027  (-0.001321 -0.004636  0.001894)
145:   3207.20   0.002640   13.34  0.000257  ( 0.012445 -0.000815 -0.010064)
146:   3220.56   0.002344   11.85  0.000227  ( 0.004239  0.003900  0.013926)
147:   3231.80   0.000341    1.72  0.000033  ( 0.005272 -0.001093  0.001981)
148:   3232.62   0.000388    1.96  0.000037  ( 0.005377  0.001802  0.002304)
149:   3246.08   0.000886    4.48  0.000085  (-0.001446 -0.008366  0.003618)

--------------------------
THERMOCHEMISTRY AT 298.15K
--------------------------

Temperature         ... 298.15 K
Pressure            ... 1.00 atm
Total Mass          ... 373.41 AMU

Throughout the following assumptions are being made:
  (1) The electronic state is orbitally nondegenerate
  (2) There are no thermally accessible electronically excited states
  (3) Hindered rotations indicated by low frequency modes are not
      treated as such but are treated as vibrations and this may
      cause some error
  (4) All equations used are the standard statistical mechanics
      equations for an ideal gas
  (5) All vibrations are strictly harmonic

freq.      17.61  E(vib)   ...       0.57
freq.      26.86  E(vib)   ...       0.55
freq.      45.21  E(vib)   ...       0.53
freq.      58.24  E(vib)   ...       0.51
freq.      59.00  E(vib)   ...       0.51
freq.      72.14  E(vib)   ...       0.50
freq.      87.90  E(vib)   ...       0.48
freq.      92.19  E(vib)   ...       0.47
freq.     103.64  E(vib)   ...       0.46
freq.     125.99  E(vib)   ...       0.43
freq.     130.72  E(vib)   ...       0.43
freq.     143.60  E(vib)   ...       0.41
freq.     147.89  E(vib)   ...       0.41
freq.     161.60  E(vib)   ...       0.39
freq.     164.04  E(vib)   ...       0.39
freq.     180.32  E(vib)   ...       0.37
freq.     183.40  E(vib)   ...       0.37
freq.     200.09  E(vib)   ...       0.35
freq.     218.87  E(vib)   ...       0.33
freq.     224.24  E(vib)   ...       0.33
freq.     237.10  E(vib)   ...       0.32
freq.     246.34  E(vib)   ...       0.31
freq.     262.45  E(vib)   ...       0.29
freq.     287.94  E(vib)   ...       0.27
freq.     303.19  E(vib)   ...       0.26
freq.     307.24  E(vib)   ...       0.26
freq.     325.51  E(vib)   ...       0.24
freq.     358.73  E(vib)   ...       0.22
freq.     364.36  E(vib)   ...       0.22
freq.     377.21  E(vib)   ...       0.21
freq.     391.08  E(vib)   ...       0.20
freq.     421.72  E(vib)   ...       0.18
freq.     437.06  E(vib)   ...       0.17
freq.     483.26  E(vib)   ...       0.15
freq.     487.83  E(vib)   ...       0.15
freq.     520.23  E(vib)   ...       0.13
freq.     543.78  E(vib)   ...       0.12
freq.     560.85  E(vib)   ...       0.11
freq.     581.06  E(vib)   ...       0.11
freq.     595.74  E(vib)   ...       0.10
freq.     618.96  E(vib)   ...       0.09
freq.     628.41  E(vib)   ...       0.09
freq.     633.15  E(vib)   ...       0.09
freq.     691.58  E(vib)   ...       0.07
freq.     706.79  E(vib)   ...       0.07
freq.     718.29  E(vib)   ...       0.07
freq.     732.93  E(vib)   ...       0.06
freq.     743.19  E(vib)   ...       0.06
freq.     764.26  E(vib)   ...       0.06
freq.     777.17  E(vib)   ...       0.05
freq.     796.09  E(vib)   ...       0.05
freq.     826.56  E(vib)   ...       0.04
freq.     845.91  E(vib)   ...       0.04
freq.     858.77  E(vib)   ...       0.04
freq.     865.82  E(vib)   ...       0.04
freq.     873.54  E(vib)   ...       0.04
freq.     920.18  E(vib)   ...       0.03
freq.     940.53  E(vib)   ...       0.03
freq.     952.71  E(vib)   ...       0.03
freq.     957.52  E(vib)   ...       0.03
freq.     961.64  E(vib)   ...       0.03
freq.     988.17  E(vib)   ...       0.02
freq.     990.18  E(vib)   ...       0.02
freq.    1006.31  E(vib)   ...       0.02
freq.    1019.13  E(vib)   ...       0.02
freq.    1031.02  E(vib)   ...       0.02
freq.    1043.09  E(vib)   ...       0.02
freq.    1059.54  E(vib)   ...       0.02
freq.    1075.01  E(vib)   ...       0.02
freq.    1085.10  E(vib)   ...       0.02
freq.    1088.08  E(vib)   ...       0.02
freq.    1112.40  E(vib)   ...       0.01
freq.    1133.88  E(vib)   ...       0.01
freq.    1144.28  E(vib)   ...       0.01
freq.    1155.42  E(vib)   ...       0.01
freq.    1160.02  E(vib)   ...       0.01
freq.    1170.50  E(vib)   ...       0.01
freq.    1171.31  E(vib)   ...       0.01
freq.    1175.90  E(vib)   ...       0.01
freq.    1185.13  E(vib)   ...       0.01
freq.    1199.08  E(vib)   ...       0.01
freq.    1199.33  E(vib)   ...       0.01
freq.    1205.94  E(vib)   ...       0.01
freq.    1221.37  E(vib)   ...       0.01
freq.    1239.72  E(vib)   ...       0.01
freq.    1252.19  E(vib)   ...       0.01
freq.    1268.33  E(vib)   ...       0.01
freq.    1291.15  E(vib)   ...       0.01
freq.    1298.92  E(vib)   ...       0.01
freq.    1305.54  E(vib)   ...       0.01
freq.    1324.76  E(vib)   ...       0.01
freq.    1330.25  E(vib)   ...       0.01
freq.    1335.03  E(vib)   ...       0.01
freq.    1341.94  E(vib)   ...       0.01
freq.    1374.21  E(vib)   ...       0.01
freq.    1388.38  E(vib)   ...       0.00
freq.    1394.02  E(vib)   ...       0.00
freq.    1403.86  E(vib)   ...       0.00
freq.    1428.83  E(vib)   ...       0.00
freq.    1439.85  E(vib)   ...       0.00
freq.    1445.37  E(vib)   ...       0.00
freq.    1459.33  E(vib)   ...       0.00
freq.    1465.07  E(vib)   ...       0.00
freq.    1466.76  E(vib)   ...       0.00
freq.    1467.84  E(vib)   ...       0.00
freq.    1471.26  E(vib)   ...       0.00
freq.    1471.97  E(vib)   ...       0.00
freq.    1472.97  E(vib)   ...       0.00
freq.    1475.02  E(vib)   ...       0.00
freq.    1484.96  E(vib)   ...       0.00
freq.    1490.45  E(vib)   ...       0.00
freq.    1496.93  E(vib)   ...       0.00
freq.    1498.49  E(vib)   ...       0.00
freq.    1516.54  E(vib)   ...       0.00
freq.    1538.45  E(vib)   ...       0.00
freq.    1620.12  E(vib)   ...       0.00
freq.    1635.12  E(vib)   ...       0.00
freq.    1647.83  E(vib)   ...       0.00
freq.    1664.46  E(vib)   ...       0.00
freq.    1704.16  E(vib)   ...       0.00
freq.    1796.86  E(vib)   ...       0.00
freq.    2914.26  E(vib)   ...       0.00
freq.    3009.73  E(vib)   ...       0.00
freq.    3016.49  E(vib)   ...       0.00
freq.    3036.92  E(vib)   ...       0.00
freq.    3071.41  E(vib)   ...       0.00
freq.    3087.94  E(vib)   ...       0.00
freq.    3091.97  E(vib)   ...       0.00
freq.    3098.87  E(vib)   ...       0.00
freq.    3108.15  E(vib)   ...       0.00
freq.    3151.53  E(vib)   ...       0.00
freq.    3152.55  E(vib)   ...       0.00
freq.    3155.41  E(vib)   ...       0.00
freq.    3166.02  E(vib)   ...       0.00
freq.    3171.79  E(vib)   ...       0.00
freq.    3186.19  E(vib)   ...       0.00
freq.    3189.45  E(vib)   ...       0.00
freq.    3193.14  E(vib)   ...       0.00
freq.    3205.84  E(vib)   ...       0.00
freq.    3207.20  E(vib)   ...       0.00
freq.    3220.56  E(vib)   ...       0.00
freq.    3231.80  E(vib)   ...       0.00
freq.    3232.62  E(vib)   ...       0.00
freq.    3246.08  E(vib)   ...       0.00

Rotational constants in cm-1:     0.009903     0.006177     0.005089

                             ****ORCA TERMINATED NORMALLY****
TOTAL RUN TIME: 0 days 2 hours 19 minutes 25 seconds 974 msec
