                         Program Version 5.0.4 -  RELEASE  -
|  1> %pal nprocs 24 end
|  2> ! PBE0 D3BJ def2-TZVP TightSCF OPT FREQ TightOpt
|  3> ! CPCM(dmso)
|  4> %scf
|  5> MaxIter 800
|  6> end
|  7>
|  8> %geom
|  9> MaxIter 800
| 10> MaxStep 0.15
| 11> end
| 12>
| 13> *xyz 0 1
| 14> C       4.16531600      0.78354200      0.42881800
| 15> C       3.92647700      1.75557700     -0.61295700
| 16> C       2.64182700      2.00562200     -0.96603400
| 17> N       1.59120400      1.40299800     -0.33755000
| 18> C       1.73877800      0.34952200      0.63512000
| 19> C       3.15679900      0.12352000      1.03753800
| 20> C       0.25160700      1.38160200     -0.83982800
| 21> C      -0.67120700      2.21469600      0.04511800
| 22> O      -0.33593700      2.76077200      1.06522000
| 23> O      -1.86879900      2.32421600     -0.50903400
| 24> C      -2.84831000      3.06276900      0.21200700
| 25> H       5.19379200      0.59330400      0.74895700
| 26> H       2.36332300      2.71324400     -1.75081600
| 27> H       1.09738500      0.55068100      1.51251400
| 28> H       3.33629500     -0.59040800      1.84239000
| 29> H       0.20526000      1.83666200     -1.83957600
| 30> H      -3.02480400      2.60554800      1.19590200
| 31> H      -3.76246000      3.02563600     -0.39008800
| 32> C       0.96308900     -0.83999200     -0.06305000
| 33> C      -0.08229000     -0.15570100     -0.97756700
| 34> C      -1.52269900     -0.56485900     -0.86412200
| 35> C      -2.22684100     -0.99416600     -1.98567300
| 36> C      -3.57615000     -1.34415800     -1.89680300
| 37> C      -4.22366000     -1.26700200     -0.66697400
| 38> C      -3.53963900     -0.84060200      0.47445200
| 39> C      -2.19672700     -0.48476400      0.36774800
| 40> O      -1.43392100     -0.04386700      1.38783400
| 41> C      -1.94416200     -0.03903800      2.70301300
| 42> N       1.97398900     -1.61444100     -0.86738900
| 43> O       2.27263400     -1.17165300     -1.94947100
| 44> H       0.23822700     -0.41219100     -1.99356800
| 45> H      -1.70578200     -1.05491200     -2.94497900
| 46> H      -4.11421300     -1.67920000     -2.78594400
| 47> H      -5.27802000     -1.54210500     -0.58313300
| 48> H      -4.05584600     -0.78311700      1.43323800
| 49> H      -2.21891600     -1.05796600      3.01990600
| 50> H      -2.82058000      0.62218200      2.78919000
| 51> H      -1.13933800      0.33991700      3.34375400
| 52> O       2.51010800     -2.54658000     -0.31592300
| 53> H      -2.52255300      4.10330400      0.34983000
| 54> H       4.74626900      2.27769900     -1.10437500
| 55> N       0.45093500     -1.84437200      0.93528500
| 56> O      -0.25683100     -2.71680400      0.49573700
| 57> O       0.81912500     -1.74342800      2.07989300
| 58> *
| 59>
| 60>                          ****END OF INPUT****
 Total Charge           Charge          ....    0
 Multiplicity           Mult            ....    1
 Number of Electrons    NEL             ....  196
Dispersion correction           -0.061576056
FINAL SINGLE POINT ENERGY     -1347.725715025980
Dispersion correction            ... done
Dispersion correction           -0.061121645
FINAL SINGLE POINT ENERGY     -1347.727193583471
Dispersion correction            ... done
Dispersion correction           -0.061587926
FINAL SINGLE POINT ENERGY     -1347.727001759553
Dispersion correction            ... done
FINAL SINGLE POINT ENERGY     -1347.727164147991
FINAL SINGLE POINT ENERGY     -1347.726379983483
FINAL SINGLE POINT ENERGY     -1347.727263070997
FINAL SINGLE POINT ENERGY     -1347.725426826209
FINAL SINGLE POINT ENERGY     -1347.727414333470
FINAL SINGLE POINT ENERGY     -1347.727404509243
FINAL SINGLE POINT ENERGY     -1347.727418416147
Dispersion correction           -0.061300572
FINAL SINGLE POINT ENERGY     -1347.727419859183
Dispersion correction            ... done
Dispersion correction           -0.061287013
FINAL SINGLE POINT ENERGY     -1347.727420849980
Dispersion correction            ... done
                    ***********************HURRAY********************

CARTESIAN COORDINATES (ANGSTROEM)
---------------------------------
  C      4.173446    0.792022    0.389790
  C      3.910567    1.765533   -0.637089
  C      2.626238    2.009691   -0.962429
  N      1.592303    1.400197   -0.321036
  C      1.763694    0.335277    0.631442
  C      3.187008    0.119637    1.003197
  C      0.251597    1.379020   -0.814120
  C     -0.667175    2.223222    0.062931
  O     -0.328027    2.774497    1.077758
  O     -1.859587    2.341895   -0.497943
  C     -2.825094    3.116369    0.219223
  H      5.199849    0.610206    0.690267
  H      2.331834    2.714859   -1.730718
  H      1.143425    0.521526    1.517144
  H      3.387820   -0.594192    1.791142
  H      0.206940    1.825436   -1.809236
  H     -2.989725    2.689336    1.208406
  H     -3.736121    3.068936   -0.371166
  C      0.975927   -0.849238   -0.063494
  C     -0.083200   -0.156496   -0.952652
  C     -1.519033   -0.570036   -0.834545
  C     -2.202343   -1.005931   -1.958266
  C     -3.543018   -1.364193   -1.889850
  C     -4.205176   -1.287719   -0.675974
  C     -3.542938   -0.854947    0.467035
  C     -2.207324   -0.493084    0.380772
  O     -1.467146   -0.048137    1.417091
  C     -2.035336   -0.040643    2.714541
  N      1.970914   -1.627227   -0.883718
  O      2.247100   -1.189851   -1.974713
  H      0.221316   -0.399774   -1.969146
  H     -1.671750   -1.064931   -2.902808
  H     -4.060802   -1.703328   -2.778760
  H     -5.250316   -1.567108   -0.606373
  H     -4.069451   -0.797589    1.410344
  H     -2.337165   -1.048839    3.010196
  H     -2.896377    0.630433    2.761390
  H     -1.254708    0.320211    3.380475
  O      2.522296   -2.557111   -0.341244
  H     -2.484668    4.147328    0.315512
  H      4.710678    2.292850   -1.134936
  N      0.475771   -1.862911    0.937220
  O     -0.235066   -2.735604    0.502484
  O      0.845577   -1.757906    2.080468

 Multiplicity           Mult            ....    1
 Number of Electrons    NEL             ....  196
 Basis Dimension        Dim             ....  939

ORBITAL ENERGIES
----------------

  NO   OCC          E(Eh)            E(eV)
   0   2.0000     -19.269398      -524.3470
   1   2.0000     -19.268035      -524.3099
   2   2.0000     -19.267595      -524.2979
   3   2.0000     -19.267574      -524.2973
   4   2.0000     -19.266135      -524.2582
   5   2.0000     -19.254756      -523.9486
   6   2.0000     -19.205355      -522.6043
   7   2.0000     -14.647726      -398.5849
   8   2.0000     -14.645789      -398.5322
   9   2.0000     -14.434472      -392.7820
  10   2.0000     -10.362435      -281.9762
  11   2.0000     -10.359851      -281.9059
  12   2.0000     -10.301597      -280.3207
  13   2.0000     -10.296496      -280.1819
  14   2.0000     -10.294980      -280.1406
  15   2.0000     -10.281372      -279.7704
  16   2.0000     -10.271742      -279.5083
  17   2.0000     -10.271010      -279.4884
  18   2.0000     -10.270395      -279.4717
  19   2.0000     -10.246869      -278.8315
  20   2.0000     -10.236439      -278.5477
  21   2.0000     -10.234265      -278.4885
  22   2.0000     -10.233467      -278.4668
  23   2.0000     -10.229503      -278.3589
  24   2.0000     -10.229215      -278.3511
  25   2.0000     -10.224530      -278.2236
  26   2.0000     -10.211958      -277.8815
  27   2.0000      -1.312335       -35.7104
  28   2.0000      -1.296431       -35.2777
  29   2.0000      -1.157024       -31.4842
  30   2.0000      -1.127005       -30.6674
  31   2.0000      -1.125558       -30.6280
  32   2.0000      -1.118157       -30.4266
  33   2.0000      -1.065273       -28.9875
  34   2.0000      -1.033143       -28.1133
  35   2.0000      -0.923473       -25.1290
  36   2.0000      -0.895402       -24.3651
  37   2.0000      -0.864494       -23.5241
  38   2.0000      -0.820215       -22.3192
  39   2.0000      -0.806379       -21.9427
  40   2.0000      -0.788116       -21.4457
  41   2.0000      -0.783937       -21.3320
  42   2.0000      -0.756133       -20.5754
  43   2.0000      -0.746338       -20.3089
  44   2.0000      -0.726289       -19.7633
  45   2.0000      -0.714057       -19.4305
  46   2.0000      -0.678394       -18.4600
  47   2.0000      -0.655975       -17.8500
  48   2.0000      -0.640810       -17.4373
  49   2.0000      -0.627081       -17.0637
  50   2.0000      -0.617439       -16.8014
  51   2.0000      -0.616656       -16.7801
  52   2.0000      -0.604521       -16.4499
  53   2.0000      -0.594722       -16.1832
  54   2.0000      -0.579486       -15.7686
  55   2.0000      -0.567157       -15.4331
  56   2.0000      -0.562539       -15.3075
  57   2.0000      -0.560855       -15.2617
  58   2.0000      -0.554928       -15.1003
  59   2.0000      -0.546539       -14.8721
  60   2.0000      -0.529268       -14.4021
  61   2.0000      -0.527377       -14.3506
  62   2.0000      -0.520683       -14.1685
  63   2.0000      -0.507674       -13.8145
  64   2.0000      -0.505853       -13.7650
  65   2.0000      -0.492001       -13.3880
  66   2.0000      -0.488713       -13.2986
  67   2.0000      -0.485760       -13.2182
  68   2.0000      -0.470833       -12.8120
  69   2.0000      -0.466710       -12.6998
  70   2.0000      -0.459810       -12.5121
  71   2.0000      -0.446843       -12.1592
  72   2.0000      -0.445454       -12.1214
  73   2.0000      -0.439762       -11.9665
  74   2.0000      -0.429445       -11.6858
  75   2.0000      -0.413734       -11.2583
  76   2.0000      -0.409524       -11.1437
  77   2.0000      -0.403190       -10.9714
  78   2.0000      -0.391223       -10.6457
  79   2.0000      -0.387456       -10.5432
  80   2.0000      -0.384037       -10.4502
  81   2.0000      -0.377592       -10.2748
  82   2.0000      -0.374694       -10.1960
  83   2.0000      -0.368112       -10.0168
  84   2.0000      -0.361171        -9.8280
  85   2.0000      -0.358817        -9.7639
  86   2.0000      -0.352686        -9.5971
  87   2.0000      -0.350437        -9.5359
  88   2.0000      -0.348411        -9.4808
  89   2.0000      -0.344247        -9.3674
  90   2.0000      -0.342092        -9.3088
  91   2.0000      -0.338932        -9.2228
  92   2.0000      -0.331834        -9.0297
  93   2.0000      -0.316346        -8.6082
  94   2.0000      -0.303030        -8.2459
  95   2.0000      -0.275242        -7.4897
  96   2.0000      -0.244953        -6.6655
  97   2.0000      -0.207908        -5.6575
  98   0.0000      -0.091329        -2.4852
  99   0.0000      -0.088533        -2.4091
 100   0.0000      -0.033274        -0.9054
 101   0.0000      -0.020967        -0.5705
 102   0.0000      -0.003012        -0.0820

MULLIKEN ATOMIC CHARGES
-----------------------
   0 C :   -0.118114
   1 C :   -0.229609
   2 C :   -0.135247
   3 N :    0.044755
   4 C :    0.022493
   5 C :   -0.309562
   6 C :   -0.030614
   7 C :    0.273409
   8 O :   -0.378704
   9 O :   -0.214994
  10 C :   -0.258855
  11 H :    0.155057
  12 H :    0.175522
  13 H :    0.153661
  14 H :    0.158954
  15 H :    0.160554
  16 H :    0.154344
  17 H :    0.162584
  18 C :   -0.148157
  19 C :    0.192166
  20 C :   -0.026117
  21 C :   -0.260024
  22 C :   -0.198251
  23 C :   -0.140984
  24 C :   -0.320957
  25 C :    0.333442
  26 O :   -0.261138
  27 C :   -0.295181
  28 N :    0.513217
  29 O :   -0.326290
  30 H :    0.152955
  31 H :    0.149243
  32 H :    0.148367
  33 H :    0.153313
  34 H :    0.166807
  35 H :    0.160614
  36 H :    0.161692
  37 H :    0.166370
  38 O :   -0.323296
  39 H :    0.159617
  40 H :    0.160047
  41 N :    0.519019
  42 O :   -0.302840
  43 O :   -0.319265
Sum of atomic charges:    0.0000000

LOEWDIN ATOMIC CHARGES
----------------------
   0 C :   -0.151109
   1 C :   -0.218902
   2 C :   -0.172906
   3 N :    0.265181
   4 C :   -0.202346
   5 C :   -0.161890
   6 C :   -0.169525
   7 C :   -0.485263
   8 O :    0.092099
   9 O :    0.281460
  10 C :   -0.300237
  11 H :    0.158056
  12 H :    0.162586
  13 H :    0.177725
  14 H :    0.153651
  15 H :    0.188229
  16 H :    0.119823
  17 H :    0.123623
  18 C :   -0.186763
  19 C :   -0.118271
  20 C :   -0.122460
  21 C :   -0.105249
  22 C :   -0.160182
  23 C :   -0.138027
  24 C :   -0.133769
  25 C :   -0.247181
  26 O :    0.270414
  27 C :   -0.324217
  28 N :   -0.046204
  29 O :    0.008055
  30 H :    0.193722
  31 H :    0.161337
  32 H :    0.153426
  33 H :    0.155871
  34 H :    0.162348
  35 H :    0.121788
  36 H :    0.119860
  37 H :    0.123928
  38 O :   -0.003106
  39 H :    0.120867
  40 H :    0.152095
  41 N :   -0.052599
  42 O :    0.018024
  43 O :    0.016041

  Mayer bond orders larger than 0.100000
B(  0-C ,  1-C ) :   1.1036 B(  0-C ,  5-C ) :   1.8368 B(  0-C , 11-H ) :   0.9572
B(  1-C ,  2-C ) :   1.6763 B(  1-C , 40-H ) :   0.9659 B(  2-C ,  3-N ) :   1.1942
B(  2-C , 12-H ) :   0.9431 B(  3-N ,  4-C ) :   0.9597 B(  3-N ,  6-C ) :   0.9601
B(  4-C ,  5-C ) :   0.9436 B(  4-C ,  6-C ) :   0.1150 B(  4-C , 13-H ) :   0.9014
B(  4-C , 18-C ) :   0.9499 B(  5-C , 14-H ) :   0.9603 B(  6-C ,  7-C ) :   0.9659
B(  6-C , 15-H ) :   0.8956 B(  6-C , 19-C ) :   0.9865 B(  7-C ,  8-O ) :   2.0071
B(  7-C ,  9-O ) :   1.2444 B(  9-O , 10-C ) :   0.8829 B( 10-C , 16-H ) :   0.9699
B( 10-C , 17-H ) :   0.9647 B( 10-C , 39-H ) :   0.9626 B( 18-C , 19-C ) :   0.9354
B( 18-C , 20-C ) :   0.1289 B( 18-C , 28-N ) :   0.8689 B( 18-C , 29-O ) :   0.1035
B( 18-C , 41-N ) :   0.8998 B( 19-C , 20-C ) :   0.7777 B( 19-C , 30-H ) :   0.9003
B( 20-C , 21-C ) :   1.3754 B( 20-C , 25-C ) :   1.1793 B( 21-C , 22-C ) :   1.3954
B( 21-C , 31-H ) :   0.9817 B( 22-C , 23-C ) :   1.3968 B( 22-C , 32-H ) :   0.9830
B( 23-C , 24-C ) :   1.3819 B( 23-C , 33-H ) :   0.9696 B( 24-C , 25-C ) :   1.4002
B( 24-C , 34-H ) :   0.9626 B( 25-C , 26-O ) :   1.0689 B( 26-O , 27-C ) :   0.9181
B( 27-C , 35-H ) :   0.9611 B( 27-C , 36-H ) :   0.9596 B( 27-C , 37-H ) :   0.9638
B( 28-N , 29-O ) :   1.5761 B( 28-N , 38-O ) :   1.5913 B( 29-O , 38-O ) :   0.2044
B( 41-N , 42-O ) :   1.6102 B( 41-N , 43-O ) :   1.5883 B( 42-O , 43-O ) :   0.2200

Dispersion correction           -0.061290019
FINAL SINGLE POINT ENERGY     -1347.727420598519

DIPOLE MOMENT
-------------
                                X             Y             Z
Electronic contribution:     10.08542      -9.12549      -3.18702
Nuclear contribution   :    -12.62723      11.15851       2.63274
                        -----------------------------------------
Total Dipole Moment    :     -2.54181       2.03302      -0.55428
                        -----------------------------------------
Magnitude (a.u.)       :      3.30170
Magnitude (Debye)      :      8.39225

Dispersion correction in the Hessian             ... done   (      0.7 sec)

VIBRATIONAL FREQUENCIES
-----------------------

Scaling factor for frequencies =  1.000000000  (already applied!)

   0:         0.00 cm**-1
   1:         0.00 cm**-1
   2:         0.00 cm**-1
   3:         0.00 cm**-1
   4:         0.00 cm**-1
   5:         0.00 cm**-1
   6:        19.97 cm**-1
   7:        50.65 cm**-1
   8:        60.85 cm**-1
   9:        72.15 cm**-1
  10:        73.16 cm**-1
  11:        86.89 cm**-1
  12:        89.86 cm**-1
  13:       100.30 cm**-1
  14:       117.82 cm**-1
  15:       120.03 cm**-1
  16:       129.53 cm**-1
  17:       144.52 cm**-1
  18:       147.07 cm**-1
  19:       155.75 cm**-1
  20:       192.79 cm**-1
  21:       198.90 cm**-1
  22:       208.15 cm**-1
  23:       225.51 cm**-1
  24:       242.04 cm**-1
  25:       247.29 cm**-1
  26:       275.34 cm**-1
  27:       282.78 cm**-1
  28:       301.43 cm**-1
  29:       316.42 cm**-1
  30:       338.56 cm**-1
  31:       358.15 cm**-1
  32:       377.84 cm**-1
  33:       418.57 cm**-1
  34:       446.27 cm**-1
  35:       477.09 cm**-1
  36:       482.77 cm**-1
  37:       503.70 cm**-1
  38:       547.24 cm**-1
  39:       568.02 cm**-1
  40:       583.99 cm**-1
  41:       592.26 cm**-1
  42:       607.02 cm**-1
  43:       620.25 cm**-1
  44:       646.15 cm**-1
  45:       656.02 cm**-1
  46:       675.75 cm**-1
  47:       696.47 cm**-1
  48:       714.06 cm**-1
  49:       758.62 cm**-1
  50:       766.77 cm**-1
  51:       774.30 cm**-1
  52:       798.83 cm**-1
  53:       803.86 cm**-1
  54:       829.11 cm**-1
  55:       834.82 cm**-1
  56:       853.86 cm**-1
  57:       873.60 cm**-1
  58:       876.52 cm**-1
  59:       898.25 cm**-1
  60:       924.61 cm**-1
  61:       950.82 cm**-1
  62:       958.95 cm**-1
  63:       978.51 cm**-1
  64:       987.21 cm**-1
  65:       992.81 cm**-1
  66:      1004.48 cm**-1
  67:      1009.84 cm**-1
  68:      1016.90 cm**-1
  69:      1042.89 cm**-1
  70:      1057.78 cm**-1
  71:      1068.16 cm**-1
  72:      1072.32 cm**-1
  73:      1083.56 cm**-1
  74:      1134.73 cm**-1
  75:      1147.90 cm**-1
  76:      1157.30 cm**-1
  77:      1171.20 cm**-1
  78:      1173.61 cm**-1
  79:      1174.01 cm**-1
  80:      1196.79 cm**-1
  81:      1206.06 cm**-1
  82:      1206.44 cm**-1
  83:      1228.38 cm**-1
  84:      1242.70 cm**-1
  85:      1252.13 cm**-1
  86:      1260.13 cm**-1
  87:      1274.71 cm**-1
  88:      1308.55 cm**-1
  89:      1319.36 cm**-1
  90:      1326.16 cm**-1
  91:      1350.40 cm**-1
  92:      1365.18 cm**-1
  93:      1371.28 cm**-1
  94:      1391.23 cm**-1
  95:      1402.18 cm**-1
  96:      1409.74 cm**-1
  97:      1441.09 cm**-1
  98:      1462.00 cm**-1
  99:      1464.84 cm**-1
 100:      1466.35 cm**-1
 101:      1469.50 cm**-1
 102:      1471.06 cm**-1
 103:      1476.40 cm**-1
 104:      1484.05 cm**-1
 105:      1501.72 cm**-1
 106:      1503.01 cm**-1
 107:      1542.33 cm**-1
 108:      1618.18 cm**-1
 109:      1653.56 cm**-1
 110:      1661.24 cm**-1
 111:      1667.14 cm**-1
 112:      1672.75 cm**-1
 113:      1707.69 cm**-1
 114:      1796.92 cm**-1
 115:      3032.09 cm**-1
 116:      3046.21 cm**-1
 117:      3075.31 cm**-1
 118:      3110.62 cm**-1
 119:      3121.48 cm**-1
 120:      3136.70 cm**-1
 121:      3159.51 cm**-1
 122:      3172.27 cm**-1
 123:      3189.24 cm**-1
 124:      3191.61 cm**-1
 125:      3191.65 cm**-1
 126:      3198.47 cm**-1
 127:      3216.12 cm**-1
 128:      3218.81 cm**-1
 129:      3226.84 cm**-1
 130:      3230.27 cm**-1
 131:      3249.10 cm**-1

IR SPECTRUM
-----------

 Mode   freq       eps      Int      T**2         TX        TY        TZ
       cm**-1   L/(mol*cm) km/mol    a.u.
----------------------------------------------------------------------------
  6:     19.97   0.000098    0.49  0.001530  (-0.006453  0.005209  0.038226)
  7:     50.65   0.000082    0.41  0.000505  (-0.008613 -0.001580 -0.020693)
  8:     60.85   0.000210    1.06  0.001078  (-0.021637  0.023806 -0.006601)
  9:     72.15   0.001287    6.51  0.005568  (-0.020281  0.071773  0.002386)
 10:     73.16   0.000349    1.76  0.001488  ( 0.021906  0.014381 -0.028310)
 11:     86.89   0.000255    1.29  0.000917  ( 0.029971  0.003210 -0.002844)
 12:     89.86   0.000302    1.53  0.001049  ( 0.024766 -0.016710  0.012488)
 13:    100.30   0.000467    2.36  0.001452  ( 0.010394  0.036070 -0.006545)
 14:    117.82   0.000552    2.79  0.001462  (-0.006759  0.037098 -0.006296)
 15:    120.03   0.000084    0.43  0.000220  (-0.007890  0.012049 -0.003476)
 16:    129.53   0.000166    0.84  0.000400  ( 0.003814 -0.019313  0.003465)
 17:    144.52   0.000048    0.24  0.000105  ( 0.003416  0.007731  0.005755)
 18:    147.07   0.000105    0.53  0.000224  (-0.010329 -0.008535  0.006632)
 19:    155.75   0.000713    3.60  0.001428  (-0.024903 -0.028175 -0.003728)
 20:    192.79   0.000651    3.29  0.001053  (-0.010532 -0.027053  0.014512)
 21:    198.90   0.000234    1.18  0.000368  ( 0.017757 -0.007142  0.001139)
 22:    208.15   0.000331    1.67  0.000496  (-0.001000 -0.008449 -0.020594)
 23:    225.51   0.001224    6.19  0.001694  (-0.032414  0.019230 -0.016540)
 24:    242.04   0.000435    2.20  0.000560  (-0.018755  0.012029 -0.007997)
 25:    247.29   0.001932    9.76  0.002438  (-0.006345  0.048340 -0.007804)
 26:    275.34   0.003464   17.51  0.003926  ( 0.058551 -0.012013  0.018800)
 27:    282.78   0.000198    1.00  0.000219  (-0.008592  0.003082 -0.011645)
 28:    301.43   0.000552    2.79  0.000571  (-0.021612 -0.010185  0.000555)
 29:    316.42   0.000762    3.85  0.000751  (-0.022595 -0.014260 -0.006123)
 30:    338.56   0.001012    5.11  0.000933  ( 0.030530  0.000563 -0.000454)
 31:    358.15   0.004848   24.50  0.004224  ( 0.033838  0.055405  0.003097)
 32:    377.84   0.003065   15.49  0.002531  ( 0.022677 -0.043776 -0.010023)
 33:    418.57   0.003712   18.76  0.002767  (-0.003514  0.040708  0.033134)
 34:    446.27   0.000214    1.08  0.000149  ( 0.000186 -0.008009 -0.009226)
 35:    477.09   0.002470   12.48  0.001615  (-0.025555  0.015176  0.027054)
 36:    482.77   0.000122    0.62  0.000079  ( 0.004860  0.003606  0.006520)
 37:    503.70   0.001514    7.65  0.000938  ( 0.004188 -0.029727 -0.006065)
 38:    547.24   0.003787   19.14  0.002160  ( 0.015014 -0.043683  0.005092)
 39:    568.02   0.006043   30.54  0.003320  (-0.054857 -0.007357 -0.016013)
 40:    583.99   0.001103    5.57  0.000589  ( 0.017846 -0.016459  0.000104)
 41:    592.26   0.002732   13.80  0.001439  ( 0.017824  0.000029 -0.033490)
 42:    607.02   0.006373   32.21  0.003276  ( 0.040191 -0.031397  0.025989)
 43:    620.25   0.003823   19.32  0.001924  ( 0.027078  0.025427 -0.023322)
 44:    646.15   0.001919    9.70  0.000927  ( 0.009420  0.028243  0.006370)
 45:    656.02   0.006566   33.18  0.003124  (-0.035770  0.026945  0.033437)
 46:    675.75   0.001538    7.77  0.000710  ( 0.002202 -0.022568 -0.013999)
 47:    696.47   0.001313    6.64  0.000588  (-0.008651  0.022655 -0.000452)
 48:    714.06   0.016157   81.65  0.007061  (-0.008821 -0.054941 -0.062965)
 49:    758.62   0.007976   40.31  0.003281  (-0.009196  0.056495 -0.002148)
 50:    766.77   0.002980   15.06  0.001213  ( 0.010245 -0.033244  0.001611)
 51:    774.30   0.014837   74.98  0.005980  (-0.021162  0.070497 -0.023706)
 52:    798.83   0.005555   28.07  0.002170  (-0.018615  0.033034  0.027063)
 53:    803.86   0.009879   49.93  0.003835  ( 0.003607  0.047795  0.039215)
 54:    829.11   0.009725   49.15  0.003660  ( 0.037840  0.046985 -0.004588)
 55:    834.82   0.030333  153.29  0.011339  ( 0.029125  0.100206  0.021192)
 56:    853.86   0.008765   44.30  0.003203  ( 0.006147  0.001933 -0.056231)
 57:    873.60   0.003251   16.43  0.001161  ( 0.016574 -0.026272  0.014011)
 58:    876.52   0.005235   26.45  0.001864  ( 0.021412 -0.036592  0.008135)
 59:    898.25   0.000852    4.31  0.000296  ( 0.009744 -0.010689 -0.009315)
 60:    924.61   0.002199   11.11  0.000742  ( 0.011194 -0.024834 -0.000414)
 61:    950.82   0.001304    6.59  0.000428  (-0.020165  0.004170  0.001997)
 62:    958.95   0.000293    1.48  0.000095  ( 0.003340 -0.008704  0.002907)
 63:    978.51   0.017597   88.93  0.005612  (-0.026140  0.067394  0.019670)
 64:    987.21   0.002186   11.05  0.000691  ( 0.015203  0.020987 -0.004395)
 65:    992.81   0.000165    0.83  0.000052  ( 0.001339  0.006954  0.001318)
 66:   1004.48   0.001103    5.58  0.000343  ( 0.013276 -0.007581 -0.010446)
 67:   1009.84   0.006109   30.87  0.001888  ( 0.025239 -0.019749 -0.029340)
 68:   1016.90   0.002468   12.47  0.000757  (-0.021276 -0.011886  0.012784)
 69:   1042.89   0.008988   45.42  0.002689  (-0.036911  0.034638 -0.011278)
 70:   1057.78   0.002448   12.37  0.000722  ( 0.017055  0.007836 -0.019233)
 71:   1068.16   0.012457   62.95  0.003639  (-0.029649  0.007765  0.051962)
 72:   1072.32   0.002322   11.74  0.000676  ( 0.018223  0.018399 -0.002280)
 73:   1083.56   0.010904   55.11  0.003140  ( 0.003001  0.005943  0.055642)
 74:   1134.73   0.000327    1.65  0.000090  ( 0.009079 -0.002103  0.001754)
 75:   1147.90   0.013723   69.35  0.003731  (-0.017071  0.008034  0.058092)
 76:   1157.30   0.003713   18.76  0.001001  ( 0.011442 -0.028999  0.005408)
 77:   1171.20   0.000302    1.53  0.000080  (-0.003640 -0.007167  0.003976)
 78:   1173.61   0.000166    0.84  0.000044  ( 0.003314  0.002336 -0.005275)
 79:   1174.01   0.000820    4.14  0.000218  ( 0.007049 -0.004054 -0.012322)
 80:   1196.79   0.004986   25.20  0.001300  ( 0.034218 -0.007966 -0.008109)
 81:   1206.06   0.002734   13.81  0.000707  ( 0.020366 -0.012712  0.011442)
 82:   1206.44   0.003653   18.46  0.000945  ( 0.023372 -0.009528 -0.017548)
 83:   1228.38   0.003112   15.73  0.000791  ( 0.021013  0.018682  0.000027)
 84:   1242.70   0.017521   88.55  0.004400  (-0.060705 -0.012301 -0.023738)
 85:   1252.13   0.036045  182.16  0.008983  ( 0.077116 -0.054454  0.008449)
 86:   1260.13   0.075923  383.68  0.018802  (-0.121130  0.062387 -0.015398)
 87:   1274.71   0.013124   66.32  0.003213  (-0.049246 -0.005474  0.027525)
 88:   1308.55   0.051357  259.54  0.012248  ( 0.046587  0.037510  0.093115)
 89:   1319.36   0.007860   39.72  0.001859  ( 0.003956  0.025474  0.034560)
 90:   1326.16   0.011897   60.12  0.002799  ( 0.047548  0.022380  0.006153)
 91:   1350.40   0.001728    8.73  0.000399  (-0.016904  0.003590 -0.010032)
 92:   1365.18   0.009870   49.88  0.002256  ( 0.028395 -0.024620 -0.029049)
 93:   1371.28   0.035348  178.64  0.008044  (-0.087915  0.017755  0.000050)
 94:   1391.23   0.001931    9.76  0.000433  ( 0.003157  0.001781 -0.020495)
 95:   1402.18   0.002970   15.01  0.000661  ( 0.015322 -0.000102 -0.020644)
 96:   1409.74   0.042709  215.83  0.009454  (-0.045245  0.037708  0.077363)
 97:   1441.09   0.018758   94.79  0.004062  (-0.054258 -0.026531  0.020349)
 98:   1462.00   0.044339  224.07  0.009464  (-0.013694  0.091176 -0.031039)
 99:   1464.84   0.002805   14.18  0.000598  ( 0.006854  0.022744 -0.005774)
100:   1466.35   0.005372   27.15  0.001143  ( 0.001814 -0.027882 -0.019040)
101:   1469.50   0.006342   32.05  0.001347  (-0.036453 -0.000403  0.004213)
102:   1471.06   0.005066   25.60  0.001075  ( 0.017797 -0.020253  0.018651)
103:   1476.40   0.003302   16.69  0.000698  (-0.001939 -0.011377 -0.023766)
104:   1484.05   0.003045   15.39  0.000640  (-0.015628 -0.007191 -0.018555)
105:   1501.72   0.008532   43.12  0.001773  (-0.002347 -0.017096 -0.038410)
106:   1503.01   0.028481  143.93  0.005913  ( 0.073044  0.021759 -0.010223)
107:   1542.33   0.024951  126.09  0.005048  ( 0.026649  0.022828  0.061783)
108:   1618.18   0.028639  144.73  0.005523  (-0.060976  0.038984 -0.016888)
109:   1653.56   0.012355   62.43  0.002332  ( 0.027627 -0.028188  0.027816)
110:   1661.24   0.149764  756.85  0.028133  (-0.057187  0.045167 -0.151072)
111:   1667.14   0.018179   91.87  0.003403  ( 0.039855  0.015771  0.039569)
112:   1672.75   0.097009  490.25  0.018098  (-0.072911 -0.100105 -0.052542)
113:   1707.69   0.036736  185.65  0.006713  ( 0.079549  0.018564 -0.006365)
114:   1796.92   0.106620  538.81  0.018516  (-0.073724 -0.055612 -0.099941)
115:   3032.09   0.002184   11.04  0.000225  ( 0.011045  0.008665 -0.005264)
116:   3046.21   0.010189   51.49  0.001044  (-0.011323  0.000747  0.030250)
117:   3075.31   0.006153   31.10  0.000624  ( 0.017831 -0.014290 -0.010111)
118:   3110.62   0.001087    5.49  0.000109  (-0.009914  0.003171 -0.000852)
119:   3121.48   0.006228   31.47  0.000623  (-0.008491  0.023291 -0.002844)
120:   3136.70   0.001323    6.68  0.000132  ( 0.007409 -0.002965 -0.008241)
121:   3159.51   0.003724   18.82  0.000368  (-0.006167 -0.015070  0.010132)
122:   3172.27   0.002699   13.64  0.000266  (-0.012717 -0.005712 -0.008436)
123:   3189.24   0.000526    2.66  0.000051  (-0.004684 -0.000431  0.005418)
124:   3191.61   0.002850   14.40  0.000279  ( 0.012653  0.000338  0.010885)
125:   3191.65   0.002011   10.16  0.000197  (-0.012079  0.004712 -0.005339)
126:   3198.47   0.001505    7.60  0.000147  (-0.010854 -0.002012  0.004993)
127:   3216.12   0.002668   13.48  0.000259  ( 0.009574  0.005122  0.011874)
128:   3218.81   0.000169    0.85  0.000016  ( 0.003554  0.001873  0.000507)
129:   3226.84   0.000217    1.10  0.000021  (-0.004161 -0.000575 -0.001833)
130:   3230.27   0.000199    1.01  0.000019  (-0.002978 -0.000030  0.003225)
131:   3249.10   0.000425    2.15  0.000041  ( 0.000577  0.004697 -0.004291)

--------------------------
THERMOCHEMISTRY AT 298.15K
--------------------------

Temperature         ... 298.15 K
Pressure            ... 1.00 atm
Total Mass          ... 375.34 AMU

Throughout the following assumptions are being made:
  (1) The electronic state is orbitally nondegenerate
  (2) There are no thermally accessible electronically excited states
  (3) Hindered rotations indicated by low frequency modes are not
      treated as such but are treated as vibrations and this may
      cause some error
  (4) All equations used are the standard statistical mechanics
      equations for an ideal gas
  (5) All vibrations are strictly harmonic

freq.      19.97  E(vib)   ...       0.56
freq.      50.65  E(vib)   ...       0.52
freq.      60.85  E(vib)   ...       0.51
freq.      72.15  E(vib)   ...       0.50
freq.      73.16  E(vib)   ...       0.49
freq.      86.89  E(vib)   ...       0.48
freq.      89.86  E(vib)   ...       0.47
freq.     100.30  E(vib)   ...       0.46
freq.     117.82  E(vib)   ...       0.44
freq.     120.03  E(vib)   ...       0.44
freq.     129.53  E(vib)   ...       0.43
freq.     144.52  E(vib)   ...       0.41
freq.     147.07  E(vib)   ...       0.41
freq.     155.75  E(vib)   ...       0.40
freq.     192.79  E(vib)   ...       0.36
freq.     198.90  E(vib)   ...       0.35
freq.     208.15  E(vib)   ...       0.34
freq.     225.51  E(vib)   ...       0.33
freq.     242.04  E(vib)   ...       0.31
freq.     247.29  E(vib)   ...       0.31
freq.     275.34  E(vib)   ...       0.28
freq.     282.78  E(vib)   ...       0.28
freq.     301.43  E(vib)   ...       0.26
freq.     316.42  E(vib)   ...       0.25
freq.     338.56  E(vib)   ...       0.23
freq.     358.15  E(vib)   ...       0.22
freq.     377.84  E(vib)   ...       0.21
freq.     418.57  E(vib)   ...       0.18
freq.     446.27  E(vib)   ...       0.17
freq.     477.09  E(vib)   ...       0.15
freq.     482.77  E(vib)   ...       0.15
freq.     503.70  E(vib)   ...       0.14
freq.     547.24  E(vib)   ...       0.12
freq.     568.02  E(vib)   ...       0.11
freq.     583.99  E(vib)   ...       0.11
freq.     592.26  E(vib)   ...       0.10
freq.     607.02  E(vib)   ...       0.10
freq.     620.25  E(vib)   ...       0.09
freq.     646.15  E(vib)   ...       0.09
freq.     656.02  E(vib)   ...       0.08
freq.     675.75  E(vib)   ...       0.08
freq.     696.47  E(vib)   ...       0.07
freq.     714.06  E(vib)   ...       0.07
freq.     758.62  E(vib)   ...       0.06
freq.     766.77  E(vib)   ...       0.06
freq.     774.30  E(vib)   ...       0.05
freq.     798.83  E(vib)   ...       0.05
freq.     803.86  E(vib)   ...       0.05
freq.     829.11  E(vib)   ...       0.04
freq.     834.82  E(vib)   ...       0.04
freq.     853.86  E(vib)   ...       0.04
freq.     873.60  E(vib)   ...       0.04
freq.     876.52  E(vib)   ...       0.04
freq.     898.25  E(vib)   ...       0.03
freq.     924.61  E(vib)   ...       0.03
freq.     950.82  E(vib)   ...       0.03
freq.     958.95  E(vib)   ...       0.03
freq.     978.51  E(vib)   ...       0.03
freq.     987.21  E(vib)   ...       0.02
freq.     992.81  E(vib)   ...       0.02
freq.    1004.48  E(vib)   ...       0.02
freq.    1009.84  E(vib)   ...       0.02
freq.    1016.90  E(vib)   ...       0.02
freq.    1042.89  E(vib)   ...       0.02
freq.    1057.78  E(vib)   ...       0.02
freq.    1068.16  E(vib)   ...       0.02
freq.    1072.32  E(vib)   ...       0.02
freq.    1083.56  E(vib)   ...       0.02
freq.    1134.73  E(vib)   ...       0.01
freq.    1147.90  E(vib)   ...       0.01
freq.    1157.30  E(vib)   ...       0.01
freq.    1171.20  E(vib)   ...       0.01
freq.    1173.61  E(vib)   ...       0.01
freq.    1174.01  E(vib)   ...       0.01
freq.    1196.79  E(vib)   ...       0.01
freq.    1206.06  E(vib)   ...       0.01
freq.    1206.44  E(vib)   ...       0.01
freq.    1228.38  E(vib)   ...       0.01
freq.    1242.70  E(vib)   ...       0.01
freq.    1252.13  E(vib)   ...       0.01
freq.    1260.13  E(vib)   ...       0.01
freq.    1274.71  E(vib)   ...       0.01
freq.    1308.55  E(vib)   ...       0.01
freq.    1319.36  E(vib)   ...       0.01
freq.    1326.16  E(vib)   ...       0.01
freq.    1350.40  E(vib)   ...       0.01
freq.    1365.18  E(vib)   ...       0.01
freq.    1371.28  E(vib)   ...       0.01
freq.    1391.23  E(vib)   ...       0.00
freq.    1402.18  E(vib)   ...       0.00
freq.    1409.74  E(vib)   ...       0.00
freq.    1441.09  E(vib)   ...       0.00
freq.    1462.00  E(vib)   ...       0.00
freq.    1464.84  E(vib)   ...       0.00
freq.    1466.35  E(vib)   ...       0.00
freq.    1469.50  E(vib)   ...       0.00
freq.    1471.06  E(vib)   ...       0.00
freq.    1476.40  E(vib)   ...       0.00
freq.    1484.05  E(vib)   ...       0.00
freq.    1501.72  E(vib)   ...       0.00
freq.    1503.01  E(vib)   ...       0.00
freq.    1542.33  E(vib)   ...       0.00
freq.    1618.18  E(vib)   ...       0.00
freq.    1653.56  E(vib)   ...       0.00
freq.    1661.24  E(vib)   ...       0.00
freq.    1667.14  E(vib)   ...       0.00
freq.    1672.75  E(vib)   ...       0.00
freq.    1707.69  E(vib)   ...       0.00
freq.    1796.92  E(vib)   ...       0.00
freq.    3032.09  E(vib)   ...       0.00
freq.    3046.21  E(vib)   ...       0.00
freq.    3075.31  E(vib)   ...       0.00
freq.    3110.62  E(vib)   ...       0.00
freq.    3121.48  E(vib)   ...       0.00
freq.    3136.70  E(vib)   ...       0.00
freq.    3159.51  E(vib)   ...       0.00
freq.    3172.27  E(vib)   ...       0.00
freq.    3189.24  E(vib)   ...       0.00
freq.    3191.61  E(vib)   ...       0.00
freq.    3191.65  E(vib)   ...       0.00
freq.    3198.47  E(vib)   ...       0.00
freq.    3216.12  E(vib)   ...       0.00
freq.    3218.81  E(vib)   ...       0.00
freq.    3226.84  E(vib)   ...       0.00
freq.    3230.27  E(vib)   ...       0.00
freq.    3249.10  E(vib)   ...       0.00

------------
INNER ENERGY
------------

The inner energy is: U= E(el) + E(ZPE) + E(vib) + E(rot) + E(trans)
    E(el)   - is the total energy from the electronic structure calculation
              = E(kin-el) + E(nuc-el) + E(el-el) + E(nuc-nuc)
    E(ZPE)  - the the zero temperature vibrational energy from the frequency calculation
    E(vib)  - the the finite temperature correction to E(ZPE) due to population
              of excited vibrational states
    E(rot)  - is the rotational thermal energy
    E(trans)- is the translational thermal energy

Summary of contributions to the inner energy U:
Electronic energy                ...  -1347.72742060 Eh
Zero point energy                ...      0.33781371 Eh     211.98 kcal/mol
Thermal vibrational correction   ...      0.02091825 Eh      13.13 kcal/mol

Rotational constants in cm-1:     0.010632     0.006622     0.005495

                             ****ORCA TERMINATED NORMALLY****
TOTAL RUN TIME: 0 days 1 hours 56 minutes 38 seconds 972 msec
