                         Program Version 5.0.4 -  RELEASE  -
|  1> %pal nprocs 24 end
|  2> %maxcore 3500
|  3> ! PBE0 D3BJ def2-TZVP TightSCF OPT FREQ TightOpt
|  4> ! CPCM(dmso)
|  5> %scf
|  6> MaxIter 800
|  7> end
|  8> %geom
|  9> MaxIter 800
| 10> MaxStep 0.2
| 11> end
| 12> *xyz 0 1
| 13> C        2.188164000     -1.712442000      1.097145000
| 14> C        3.260603000     -0.643327000      0.956765000
| 15> O        3.466752000      0.222523000      1.766204000
| 16> O        3.908962000     -0.799679000     -0.182777000
| 17> C        4.883994000      0.202030000     -0.498351000
| 18> H        2.582464000     -2.683129000      0.799630000
| 19> H        5.661242000      0.222413000      0.265200000
| 20> H        4.398481000      1.175206000     -0.566948000
| 21> C       -3.174226000      1.825126000      0.683821000
| 22> C       -2.742714000      1.668331000      1.991405000
| 23> C       -1.677869000      0.831210000      2.253460000
| 24> C       -1.033841000      0.153234000      1.207444000
| 25> C       -1.508543000      0.321055000     -0.102047000
| 26> C       -2.572063000      1.153366000     -0.368371000
| 27> C        0.125819000     -0.683294000      1.398759000
| 28> C        0.916197000     -1.331843000      0.309902000
| 29> C        0.213620000     -2.500307000     -0.332486000
| 30> C       -0.651680000     -3.316064000      0.379865000
| 31> C       -1.288691000     -4.391854000     -0.224044000
| 32> C       -1.056975000     -4.648187000     -1.565373000
| 33> C       -0.196284000     -3.845018000     -2.302550000
| 34> C        0.445117000     -2.773931000     -1.688613000
| 35> O        1.300909000     -1.945635000     -2.323890000
| 36> C        1.516590000     -2.139217000     -3.709305000
| 37> N        0.631366000     -0.981013000      2.567849000
| 38> O        0.302706000     -0.725490000      3.713852000
| 39> H       -3.231940000      2.205636000      2.791934000
| 40> H       -1.329944000      0.713111000      3.268269000
| 41> H       -1.030710000     -0.191940000     -0.925443000
| 42> H       -2.926962000      1.294073000     -1.379425000
| 43> H        1.175053000     -0.600198000     -0.456349000
| 44> H       -0.839290000     -3.101186000      1.426823000
| 45> H       -1.962452000     -5.017163000      0.348949000
| 46> H       -1.550156000     -5.480493000     -2.054746000
| 47> H       -0.028721000     -4.058696000     -3.349576000
| 48> H        1.961596000     -3.118468000     -3.906313000
| 49> H        2.207670000     -1.357062000     -4.016543000
| 50> H        0.582388000     -2.044061000     -4.269836000
| 51> O        1.778247000     -1.799583000      2.449016000
| 52> H        5.300528000     -0.087651000     -1.459246000
| 53> N       -4.276512000      2.728252000      0.403685000
| 54> O       -4.601390000      2.892908000     -0.757274000
| 55> O       -4.819287000      3.281484000      1.341198000
| 56> *
| 57>
| 58>                          ****END OF INPUT****
 Total Charge           Charge          ....    0
 Multiplicity           Mult            ....    1
 Number of Electrons    NEL             ....  194
Dispersion correction           -0.051941955
FINAL SINGLE POINT ENERGY     -1330.528391332108
Dispersion correction            ... done
Dispersion correction           -0.051940408
FINAL SINGLE POINT ENERGY     -1330.528626880816
Dispersion correction            ... done
Dispersion correction           -0.051919738
FINAL SINGLE POINT ENERGY     -1330.528209780221
Dispersion correction            ... done
FINAL SINGLE POINT ENERGY     -1330.528610710990
FINAL SINGLE POINT ENERGY     -1330.528641267196
FINAL SINGLE POINT ENERGY     -1330.528783561814
FINAL SINGLE POINT ENERGY     -1330.528783200869
FINAL SINGLE POINT ENERGY     -1330.528759765369
FINAL SINGLE POINT ENERGY     -1330.528676292547
FINAL SINGLE POINT ENERGY     -1330.528647735710
FINAL SINGLE POINT ENERGY     -1330.528642263674
FINAL SINGLE POINT ENERGY     -1330.528659715769
FINAL SINGLE POINT ENERGY     -1330.528670414742
FINAL SINGLE POINT ENERGY     -1330.528685081640
Dispersion correction           -0.052100586
FINAL SINGLE POINT ENERGY     -1330.528686167840
Dispersion correction            ... done
Dispersion correction           -0.052100102
FINAL SINGLE POINT ENERGY     -1330.528687694704
Dispersion correction            ... done
                    ***********************HURRAY********************

CARTESIAN COORDINATES (ANGSTROEM)
---------------------------------
  C      2.181350   -1.640269    0.960664
  C      3.273595   -0.598406    0.784437
  O      3.439042    0.337564    1.522598
  O      3.979717   -0.850005   -0.302657
  C      4.996110    0.105733   -0.632641
  H      2.533826   -2.620280    0.643620
  H      5.735924    0.154111    0.166103
  H      4.550677    1.088791   -0.783916
  C     -3.314278    1.767479    0.851572
  C     -2.869053    1.526151    2.141076
  C     -1.733657    0.765339    2.331439
  C     -1.037564    0.240145    1.231940
  C     -1.515474    0.506448   -0.061210
  C     -2.647529    1.266683   -0.256200
  C      0.146366   -0.574625    1.357633
  C      0.885565   -1.219243    0.230839
  C      0.142346   -2.371751   -0.399218
  C     -0.879087   -3.042592    0.254055
  C     -1.541975   -4.104885   -0.347398
  C     -1.172470   -4.499008   -1.622183
  C     -0.148475   -3.846268   -2.297360
  C      0.512282   -2.785543   -1.687560
  O      1.522815   -2.097220   -2.257854
  C      1.940528   -2.472073   -3.557288
  N      0.691738   -0.899629    2.501863
  O      0.408650   -0.661766    3.662729
  H     -3.409790    1.930416    2.985498
  H     -1.384464    0.572821    3.334124
  H     -0.998726    0.110495   -0.925321
  H     -3.014972    1.470690   -1.252150
  H      1.128583   -0.489183   -0.543735
  H     -1.168954   -2.727715    1.250948
  H     -2.340221   -4.614590    0.178229
  H     -1.681604   -5.324217   -2.107162
  H      0.128807   -4.168090   -3.292128
  H      2.300212   -3.504625   -3.571529
  H      2.754914   -1.798665   -3.815993
  H      1.127702   -2.359243   -4.280034
  O      1.826001   -1.723278    2.329179
  H      5.449169   -0.255008   -1.551788
  N     -4.514163    2.563972    0.654610
  O     -4.874960    2.784115   -0.485739
  O     -5.100285    2.970255    1.639576

 Multiplicity           Mult            ....    1
 Number of Electrons    NEL             ....  194
 Basis Dimension        Dim             ....  933

ORBITAL ENERGIES
----------------

  NO   OCC          E(Eh)            E(eV)
   0   2.0000     -19.291398      -524.9456
   1   2.0000     -19.271939      -524.4161
   2   2.0000     -19.248782      -523.7860
   3   2.0000     -19.248411      -523.7759
   4   2.0000     -19.248354      -523.7744
   5   2.0000     -19.235965      -523.4372
   6   2.0000     -19.212277      -522.7926
   7   2.0000     -14.632884      -398.1810
   8   2.0000     -14.600345      -397.2956
   9   2.0000     -10.365954      -282.0720
  10   2.0000     -10.315919      -280.7104
  11   2.0000     -10.298311      -280.2313
  12   2.0000     -10.294502      -280.1276
  13   2.0000     -10.292770      -280.0805
  14   2.0000     -10.277438      -279.6633
  15   2.0000     -10.275236      -279.6034
  16   2.0000     -10.273993      -279.5695
  17   2.0000     -10.268026      -279.4072
  18   2.0000     -10.255745      -279.0730
  19   2.0000     -10.255318      -279.0614
  20   2.0000     -10.252201      -278.9766
  21   2.0000     -10.248869      -278.8859
  22   2.0000     -10.245040      -278.7817
  23   2.0000     -10.234250      -278.4881
  24   2.0000     -10.232104      -278.4297
  25   2.0000     -10.228477      -278.3310
  26   2.0000     -10.223884      -278.2060
  27   2.0000      -1.283141       -34.9161
  28   2.0000      -1.248470       -33.9726
  29   2.0000      -1.162285       -31.6274
  30   2.0000      -1.112690       -30.2778
  31   2.0000      -1.111387       -30.2424
  32   2.0000      -1.101902       -29.9843
  33   2.0000      -1.068675       -29.0801
  34   2.0000      -0.943345       -25.6697
  35   2.0000      -0.917739       -24.9730
  36   2.0000      -0.894068       -24.3288
  37   2.0000      -0.849115       -23.1056
  38   2.0000      -0.843116       -22.9424
  39   2.0000      -0.802695       -21.8424
  40   2.0000      -0.795166       -21.6376
  41   2.0000      -0.781692       -21.2709
  42   2.0000      -0.759367       -20.6634
  43   2.0000      -0.746952       -20.3256
  44   2.0000      -0.724335       -19.7102
  45   2.0000      -0.707202       -19.2439
  46   2.0000      -0.657967       -17.9042
  47   2.0000      -0.653289       -17.7769
  48   2.0000      -0.632246       -17.2043
  49   2.0000      -0.628028       -17.0895
  50   2.0000      -0.615371       -16.7451
  51   2.0000      -0.597697       -16.2642
  52   2.0000      -0.590547       -16.0696
  53   2.0000      -0.583071       -15.8662
  54   2.0000      -0.571760       -15.5584
  55   2.0000      -0.571498       -15.5513
  56   2.0000      -0.554458       -15.0876
  57   2.0000      -0.551441       -15.0055
  58   2.0000      -0.545700       -14.8493
  59   2.0000      -0.525507       -14.2998
  60   2.0000      -0.523930       -14.2569
  61   2.0000      -0.518421       -14.1070
  62   2.0000      -0.508435       -13.8352
  63   2.0000      -0.504551       -13.7295
  64   2.0000      -0.494614       -13.4591
  65   2.0000      -0.490364       -13.3435
  66   2.0000      -0.480449       -13.0737
  67   2.0000      -0.472744       -12.8640
  68   2.0000      -0.463708       -12.6181
  69   2.0000      -0.461502       -12.5581
  70   2.0000      -0.459463       -12.5026
  71   2.0000      -0.449617       -12.2347
  72   2.0000      -0.445698       -12.1281
  73   2.0000      -0.433020       -11.7831
  74   2.0000      -0.427684       -11.6379
  75   2.0000      -0.417931       -11.3725
  76   2.0000      -0.411725       -11.2036
  77   2.0000      -0.407982       -11.1018
  78   2.0000      -0.390100       -10.6152
  79   2.0000      -0.387595       -10.5470
  80   2.0000      -0.386107       -10.5065
  81   2.0000      -0.383393       -10.4327
  82   2.0000      -0.372414       -10.1339
  83   2.0000      -0.356566        -9.7027
  84   2.0000      -0.347105        -9.4452
  85   2.0000      -0.346058        -9.4167
  86   2.0000      -0.344867        -9.3843
  87   2.0000      -0.343898        -9.3579
  88   2.0000      -0.337112        -9.1733
  89   2.0000      -0.329186        -8.9576
  90   2.0000      -0.324720        -8.8361
  91   2.0000      -0.323566        -8.8047
  92   2.0000      -0.310977        -8.4621
  93   2.0000      -0.295441        -8.0394
  94   2.0000      -0.273739        -7.4488
  95   2.0000      -0.247931        -6.7466
  96   2.0000      -0.243341        -6.6217
  97   0.0000      -0.105230        -2.8635
  98   0.0000      -0.045168        -1.2291
  99   0.0000      -0.030190        -0.8215
 100   0.0000      -0.020877        -0.5681
 101   0.0000      -0.005720        -0.1557

MULLIKEN ATOMIC CHARGES
-----------------------
   0 C :    0.149083
   1 C :    0.249519
   2 O :   -0.383284
   3 O :   -0.215011
   4 C :   -0.256777
   5 H :    0.168520
   6 H :    0.158562
   7 H :    0.158353
   8 C :    0.121177
   9 C :   -0.175484
  10 C :   -0.259708
  11 C :    0.151099
  12 C :   -0.178437
  13 C :   -0.228627
  14 C :   -0.058856
  15 C :    0.102350
  16 C :   -0.115273
  17 C :   -0.128740
  18 C :   -0.210524
  19 C :   -0.142523
  20 C :   -0.296963
  21 C :    0.242158
  22 O :   -0.253337
  23 C :   -0.284999
  24 N :    0.460614
  25 O :   -0.439319
  26 H :    0.174171
  27 H :    0.168404
  28 H :    0.174788
  29 H :    0.174318
  30 H :    0.156820
  31 H :    0.165910
  32 H :    0.148713
  33 H :    0.153943
  34 H :    0.166466
  35 H :    0.151872
  36 H :    0.163110
  37 H :    0.152624
  38 O :   -0.223387
  39 H :    0.165817
  40 N :    0.486330
  41 O :   -0.356600
  42 O :   -0.356870
Sum of atomic charges:   -0.0000000

LOEWDIN ATOMIC CHARGES
----------------------
   0 C :   -0.230863
   1 C :   -0.485300
   2 O :    0.093882
   3 O :    0.274730
   4 C :   -0.294062
   5 H :    0.178008
   6 H :    0.121438
   7 H :    0.121196
   8 C :   -0.165909
   9 C :   -0.084069
  10 C :   -0.080209
  11 C :   -0.102557
  12 C :   -0.070245
  13 C :   -0.084607
  14 C :   -0.149838
  15 C :   -0.145012
  16 C :   -0.111318
  17 C :   -0.105126
  18 C :   -0.162624
  19 C :   -0.141687
  20 C :   -0.137344
  21 C :   -0.230980
  22 O :    0.251987
  23 C :   -0.323246
  24 N :    0.085694
  25 O :   -0.089490
  26 H :    0.167734
  27 H :    0.162229
  28 H :    0.171559
  29 H :    0.168041
  30 H :    0.190648
  31 H :    0.164983
  32 H :    0.153022
  33 H :    0.155484
  34 H :    0.161008
  35 H :    0.118058
  36 H :    0.122082
  37 H :    0.118160
  38 O :    0.202335
  39 H :    0.123780
  40 N :   -0.028248
  41 O :   -0.041811
  42 O :   -0.041511

  Mayer bond orders larger than 0.100000
B(  0-C ,  1-C ) :   0.9548 B(  0-C ,  5-H ) :   0.9203 B(  0-C , 15-C ) :   0.8974
B(  0-C , 38-O ) :   0.9783 B(  1-C ,  2-O ) :   2.0017 B(  1-C ,  3-O ) :   1.2555
B(  3-O ,  4-C ) :   0.8811 B(  4-C ,  6-H ) :   0.9656 B(  4-C ,  7-H ) :   0.9656
B(  4-C , 39-H ) :   0.9619 B(  8-C ,  9-C ) :   1.3603 B(  8-C , 13-C ) :   1.3393
B(  8-C , 40-N ) :   1.0229 B(  9-C , 10-C ) :   1.4619 B(  9-C , 26-H ) :   0.9490
B( 10-C , 11-C ) :   1.3343 B( 10-C , 27-H ) :   0.9589 B( 11-C , 12-C ) :   1.2710
B( 11-C , 14-C ) :   0.9989 B( 12-C , 13-C ) :   1.4857 B( 12-C , 28-H ) :   0.9659
B( 13-C , 29-H ) :   0.9495 B( 14-C , 15-C ) :   0.9622 B( 14-C , 24-N ) :   1.5585
B( 14-C , 25-O ) :   0.2217 B( 15-C , 16-C ) :   0.8562 B( 15-C , 30-H ) :   0.9726
B( 16-C , 17-C ) :   1.3524 B( 16-C , 21-C ) :   1.3135 B( 17-C , 18-C ) :   1.4004
B( 17-C , 31-H ) :   0.9733 B( 18-C , 19-C ) :   1.4128 B( 18-C , 32-H ) :   0.9807
B( 19-C , 20-C ) :   1.3881 B( 19-C , 33-H ) :   0.9647 B( 20-C , 21-C ) :   1.3831
B( 20-C , 34-H ) :   0.9591 B( 21-C , 22-O ) :   1.1304 B( 22-O , 23-C ) :   0.9351
B( 23-C , 35-H ) :   0.9618 B( 23-C , 36-H ) :   0.9646 B( 23-C , 37-H ) :   0.9618
B( 24-N , 25-O ) :   1.4388 B( 24-N , 38-O ) :   0.8572 B( 40-N , 41-O ) :   1.6085
B( 40-N , 42-O ) :   1.6104 B( 41-O , 42-O ) :   0.1853

Dispersion correction           -0.052101106
FINAL SINGLE POINT ENERGY     -1330.528686765880

DIPOLE MOMENT
-------------
                                X             Y             Z
Electronic contribution:    -10.69243       9.11555      13.86313
Nuclear contribution   :     13.25579     -11.40370     -17.47909
                        -----------------------------------------
Total Dipole Moment    :      2.56337      -2.28816      -3.61596
                        -----------------------------------------
Magnitude (a.u.)       :      4.98815
Magnitude (Debye)      :     12.67887

Dispersion correction in the Hessian             ... done   (      1.1 sec)

VIBRATIONAL FREQUENCIES
-----------------------

Scaling factor for frequencies =  1.000000000  (already applied!)

   0:         0.00 cm**-1
   1:         0.00 cm**-1
   2:         0.00 cm**-1
   3:         0.00 cm**-1
   4:         0.00 cm**-1
   5:         0.00 cm**-1
   6:        10.21 cm**-1
   7:        21.88 cm**-1
   8:        30.96 cm**-1
   9:        35.08 cm**-1
  10:        48.89 cm**-1
  11:        55.13 cm**-1
  12:        59.36 cm**-1
  13:        86.95 cm**-1
  14:        94.77 cm**-1
  15:       100.18 cm**-1
  16:       116.38 cm**-1
  17:       135.08 cm**-1
  18:       146.67 cm**-1
  19:       158.06 cm**-1
  20:       176.79 cm**-1
  21:       200.51 cm**-1
  22:       237.73 cm**-1
  23:       244.09 cm**-1
  24:       247.70 cm**-1
  25:       258.55 cm**-1
  26:       279.36 cm**-1
  27:       306.51 cm**-1
  28:       328.85 cm**-1
  29:       345.27 cm**-1
  30:       372.63 cm**-1
  31:       386.19 cm**-1
  32:       419.97 cm**-1
  33:       420.86 cm**-1
  34:       472.15 cm**-1
  35:       491.02 cm**-1
  36:       510.43 cm**-1
  37:       524.81 cm**-1
  38:       542.43 cm**-1
  39:       563.86 cm**-1
  40:       577.81 cm**-1
  41:       597.25 cm**-1
  42:       615.42 cm**-1
  43:       642.57 cm**-1
  44:       688.56 cm**-1
  45:       719.03 cm**-1
  46:       723.44 cm**-1
  47:       726.98 cm**-1
  48:       740.28 cm**-1
  49:       768.01 cm**-1
  50:       772.13 cm**-1
  51:       782.15 cm**-1
  52:       792.98 cm**-1
  53:       815.81 cm**-1
  54:       840.30 cm**-1
  55:       846.83 cm**-1
  56:       872.68 cm**-1
  57:       875.86 cm**-1
  58:       888.26 cm**-1
  59:       895.47 cm**-1
  60:       913.20 cm**-1
  61:       957.50 cm**-1
  62:       969.29 cm**-1
  63:       992.73 cm**-1
  64:       996.37 cm**-1
  65:       999.99 cm**-1
  66:      1001.30 cm**-1
  67:      1030.34 cm**-1
  68:      1050.56 cm**-1
  69:      1071.23 cm**-1
  70:      1083.43 cm**-1
  71:      1096.41 cm**-1
  72:      1108.08 cm**-1
  73:      1138.23 cm**-1
  74:      1139.24 cm**-1
  75:      1141.52 cm**-1
  76:      1171.12 cm**-1
  77:      1171.91 cm**-1
  78:      1175.67 cm**-1
  79:      1196.24 cm**-1
  80:      1205.20 cm**-1
  81:      1212.54 cm**-1
  82:      1216.85 cm**-1
  83:      1240.37 cm**-1
  84:      1257.43 cm**-1
  85:      1290.63 cm**-1
  86:      1296.21 cm**-1
  87:      1307.79 cm**-1
  88:      1315.56 cm**-1
  89:      1333.71 cm**-1
  90:      1343.20 cm**-1
  91:      1378.67 cm**-1
  92:      1389.59 cm**-1
  93:      1399.60 cm**-1
  94:      1403.62 cm**-1
  95:      1446.77 cm**-1
  96:      1456.31 cm**-1
  97:      1465.97 cm**-1
  98:      1466.26 cm**-1
  99:      1470.32 cm**-1
 100:      1472.94 cm**-1
 101:      1473.09 cm**-1
 102:      1482.76 cm**-1
 103:      1499.10 cm**-1
 104:      1536.62 cm**-1
 105:      1546.14 cm**-1
 106:      1596.98 cm**-1
 107:      1644.10 cm**-1
 108:      1650.04 cm**-1
 109:      1657.72 cm**-1
 110:      1664.00 cm**-1
 111:      1699.28 cm**-1
 112:      1804.90 cm**-1
 113:      3038.95 cm**-1
 114:      3075.50 cm**-1
 115:      3101.89 cm**-1
 116:      3111.12 cm**-1
 117:      3149.17 cm**-1
 118:      3160.86 cm**-1
 119:      3167.56 cm**-1
 120:      3189.59 cm**-1
 121:      3195.47 cm**-1
 122:      3197.93 cm**-1
 123:      3215.97 cm**-1
 124:      3228.47 cm**-1
 125:      3231.51 cm**-1
 126:      3241.74 cm**-1
 127:      3247.40 cm**-1
 128:      3263.50 cm**-1

IR SPECTRUM
-----------

 Mode   freq       eps      Int      T**2         TX        TY        TZ
       cm**-1   L/(mol*cm) km/mol    a.u.
----------------------------------------------------------------------------
  6:     10.21   0.000053    0.27  0.001609  ( 0.039052 -0.007676 -0.004956)
  7:     21.88   0.000146    0.74  0.002081  (-0.027394  0.030860 -0.019447)
  8:     30.96   0.000056    0.29  0.000569  (-0.023687  0.000867 -0.002725)
  9:     35.08   0.000703    3.55  0.006249  (-0.015258  0.074209 -0.022570)
 10:     48.89   0.000384    1.94  0.002453  (-0.046164 -0.005365 -0.017129)
 11:     55.13   0.000137    0.69  0.000776  (-0.019019 -0.017544  0.010317)
 12:     59.36   0.000021    0.11  0.000113  ( 0.003778  0.009734 -0.001975)
 13:     86.95   0.000786    3.97  0.002821  (-0.031382 -0.042845 -0.000802)
 14:     94.77   0.000507    2.56  0.001671  (-0.033853 -0.000013 -0.022905)
 15:    100.18   0.001130    5.71  0.003519  ( 0.021980 -0.051936  0.018393)
 16:    116.38   0.000410    2.07  0.001100  (-0.008544  0.009123  0.030724)
 17:    135.08   0.000263    1.33  0.000609  ( 0.018780  0.015997  0.000076)
 18:    146.67   0.000233    1.18  0.000496  (-0.006154  0.020207 -0.007040)
 19:    158.06   0.000446    2.25  0.000880  (-0.003565 -0.008785  0.028113)
 20:    176.79   0.001436    7.26  0.002535  ( 0.037149 -0.033743 -0.004034)
 21:    200.51   0.000718    3.63  0.001118  ( 0.021554 -0.025039  0.005130)
 22:    237.73   0.000472    2.39  0.000620  ( 0.003130  0.008259 -0.023271)
 23:    244.09   0.000701    3.54  0.000896  ( 0.024686 -0.016725 -0.002549)
 24:    247.70   0.001483    7.49  0.001868  ( 0.016195 -0.013192  0.037839)
 25:    258.55   0.000408    2.06  0.000492  (-0.018574 -0.010398  0.006247)
 26:    279.36   0.000819    4.14  0.000915  (-0.023341  0.010123 -0.016375)
 27:    306.51   0.000396    2.00  0.000403  (-0.016605 -0.006655  0.009122)
 28:    328.85   0.003060   15.46  0.002904  ( 0.046126 -0.023050 -0.015647)
 29:    345.27   0.003598   18.18  0.003252  ( 0.043145  0.001171 -0.037269)
 30:    372.63   0.001510    7.63  0.001265  (-0.034795  0.006760 -0.002914)
 31:    386.19   0.001457    7.36  0.001178  ( 0.019559 -0.021467  0.018279)
 32:    419.97   0.000307    1.55  0.000228  (-0.008210  0.012462 -0.002375)
 33:    420.86   0.000432    2.18  0.000320  (-0.002832  0.017345 -0.003350)
 34:    472.15   0.002374   12.00  0.001569  ( 0.033403 -0.017385  0.012283)
 35:    491.02   0.001702    8.60  0.001081  (-0.003678  0.029700  0.013632)
 36:    510.43   0.000160    0.81  0.000098  ( 0.005683 -0.006547  0.004761)
 37:    524.81   0.007360   37.20  0.004377  (-0.036187 -0.055060  0.005960)
 38:    542.43   0.000499    2.52  0.000287  ( 0.011537 -0.000867  0.012389)
 39:    563.86   0.001647    8.32  0.000911  (-0.025897  0.013431  0.007768)
 40:    577.81   0.003552   17.95  0.001918  (-0.013112  0.041789 -0.000124)
 41:    597.25   0.007569   38.25  0.003955  (-0.048340  0.038228  0.012512)
 42:    615.42   0.001841    9.31  0.000934  ( 0.024926 -0.007128  0.016172)
 43:    642.57   0.000686    3.46  0.000333  (-0.012035  0.012589  0.005439)
 44:    688.56   0.000726    3.67  0.000329  (-0.008055 -0.011876 -0.011090)
 45:    719.03   0.006032   30.49  0.002618  ( 0.043908  0.022499 -0.013566)
 46:    723.44   0.001473    7.44  0.000635  ( 0.015365  0.019390 -0.004809)
 47:    726.98   0.002646   13.37  0.001136  ( 0.007652 -0.032674 -0.003137)
 48:    740.28   0.002069   10.46  0.000872  ( 0.010801  0.020462  0.018351)
 49:    768.01   0.013638   68.92  0.005542  (-0.031845  0.061281 -0.027789)
 50:    772.13   0.020182  101.99  0.008157  (-0.071356  0.037067 -0.041125)
 51:    782.15   0.001840    9.30  0.000734  ( 0.015801 -0.000218  0.022014)
 52:    792.98   0.013047   65.94  0.005135  ( 0.042825  0.057449 -0.000513)
 53:    815.81   0.008313   42.01  0.003180  ( 0.054878  0.009098 -0.009242)
 54:    840.30   0.000333    1.68  0.000124  (-0.002098 -0.008114 -0.007300)
 55:    846.83   0.005936   30.00  0.002187  ( 0.010682 -0.032623 -0.031765)
 56:    872.68   0.051348  259.49  0.018362  (-0.118124  0.065061  0.013239)
 57:    875.86   0.012321   62.26  0.004390  (-0.060728  0.026331 -0.002916)
 58:    888.26   0.010704   54.09  0.003760  ( 0.010377  0.059927 -0.007843)
 59:    895.47   0.004520   22.84  0.001575  (-0.018313  0.007557 -0.034388)
 60:    913.20   0.033038  166.96  0.011290  (-0.097792  0.040339  0.009969)
 61:    957.50   0.000764    3.86  0.000249  (-0.004073 -0.015156 -0.001612)
 62:    969.29   0.001257    6.35  0.000405  (-0.011601 -0.008943 -0.013791)
 63:    992.73   0.000069    0.35  0.000022  (-0.000567  0.003835  0.002554)
 64:    996.37   0.000078    0.39  0.000024  (-0.001807 -0.003731 -0.002679)
 65:    999.99   0.001596    8.07  0.000498  ( 0.003494 -0.017343 -0.013606)
 66:   1001.30   0.002837   14.34  0.000884  ( 0.003624 -0.024346 -0.016681)
 67:   1030.34   0.000261    1.32  0.000079  (-0.002083 -0.007267 -0.004680)
 68:   1050.56   0.005014   25.34  0.001489  (-0.034168 -0.015197  0.009540)
 69:   1071.23   0.012101   61.15  0.003525  ( 0.015242 -0.019128 -0.054101)
 70:   1083.43   0.009608   48.56  0.002768  ( 0.035205  0.019117 -0.034098)
 71:   1096.41   0.031367  158.51  0.008928  (-0.065023  0.003701  0.068454)
 72:   1108.08   0.002430   12.28  0.000684  (-0.002815  0.017412 -0.019320)
 73:   1138.23   0.025455  128.64  0.006979  (-0.065072  0.036376 -0.037700)
 74:   1139.24   0.013955   70.52  0.003823  (-0.001448  0.015919 -0.059725)
 75:   1141.52   0.035677  180.30  0.009753  ( 0.082316 -0.054421 -0.003960)
 76:   1171.12   0.000230    1.16  0.000061  (-0.006487  0.002604 -0.003508)
 77:   1171.91   0.000182    0.92  0.000049  ( 0.002923 -0.003753  0.005095)
 78:   1175.67   0.001650    8.34  0.000438  (-0.006825  0.007302  0.018387)
 79:   1196.24   0.000934    4.72  0.000244  (-0.002850 -0.004185 -0.014768)
 80:   1205.20   0.005771   29.16  0.001494  ( 0.032466  0.004449 -0.020503)
 81:   1212.54   0.000808    4.08  0.000208  ( 0.010821 -0.002499 -0.009192)
 82:   1216.85   0.000591    2.99  0.000152  (-0.000902  0.002762  0.011961)
 83:   1240.37   0.045668  230.79  0.011490  ( 0.078088 -0.000660 -0.073425)
 84:   1257.43   0.012133   61.32  0.003011  (-0.015247 -0.013922  0.050842)
 85:   1290.63   0.023119  116.83  0.005590  ( 0.059437  0.012962  0.043465)
 86:   1296.21   0.118340  598.04  0.028491  ( 0.134008  0.012332 -0.101885)
 87:   1307.79   0.005011   25.32  0.001196  (-0.007388 -0.031547  0.012076)
 88:   1315.56   0.008617   43.55  0.002044  (-0.030219 -0.028623  0.017654)
 89:   1333.71   0.012081   61.05  0.002827  ( 0.036576  0.003266 -0.038447)
 90:   1343.20   0.002584   13.06  0.000600  (-0.005406  0.008746 -0.022239)
 91:   1378.67   0.001448    7.32  0.000328  ( 0.001241  0.015984  0.008403)
 92:   1389.59   0.004473   22.60  0.001004  (-0.027725  0.002478  0.015155)
 93:   1399.60   0.060103  303.74  0.013401  ( 0.047508 -0.073327  0.075941)
 94:   1403.62   0.269914  1364.03  0.060009  (-0.207693  0.124722 -0.036298)
 95:   1446.77   0.012727   64.32  0.002745  ( 0.004824  0.009607  0.051281)
 96:   1456.31   0.004451   22.49  0.000954  (-0.012288 -0.003737  0.028084)
 97:   1465.97   0.005520   27.89  0.001175  ( 0.020814  0.016425 -0.021725)
 98:   1466.26   0.003337   16.86  0.000710  ( 0.018383 -0.010937  0.015893)
 99:   1470.32   0.010678   53.96  0.002266  ( 0.040288  0.017112 -0.018718)
100:   1472.94   0.002976   15.04  0.000631  (-0.018264  0.014576 -0.009194)
101:   1473.09   0.003067   15.50  0.000650  ( 0.007682 -0.016704 -0.017654)
102:   1482.76   0.005885   29.74  0.001239  (-0.025709 -0.017659  0.016303)
103:   1499.10   0.013269   67.06  0.002762  ( 0.033842  0.015839 -0.036961)
104:   1536.62   0.038814  196.15  0.007882  (-0.060839 -0.036486  0.053384)
105:   1546.14   0.006929   35.02  0.001399  (-0.026632  0.016865  0.020121)
106:   1596.98   0.110955  560.72  0.021681  ( 0.007947 -0.009475 -0.146726)
107:   1644.10   0.126699  640.28  0.024048  ( 0.098938 -0.058881  0.103888)
108:   1650.04   0.012666   64.01  0.002396  (-0.040670  0.024753  0.011348)
109:   1657.72   0.041864  211.56  0.007881  ( 0.014049 -0.005582  0.087477)
110:   1664.00   0.018295   92.46  0.003431  ( 0.040806  0.023779 -0.034648)
111:   1699.28   0.144818  731.85  0.026595  (-0.067523  0.018415 -0.147298)
112:   1804.90   0.098626  498.41  0.017052  (-0.002697 -0.082772 -0.100964)
113:   3038.95   0.012514   63.24  0.001285  ( 0.012646 -0.007611 -0.032668)
114:   3075.50   0.005169   26.12  0.000525  ( 0.017856  0.012714 -0.006634)
115:   3101.89   0.000530    2.68  0.000053  (-0.000828 -0.005725 -0.004459)
116:   3111.12   0.007234   36.56  0.000726  (-0.017755  0.017233 -0.010651)
117:   3149.17   0.000436    2.21  0.000043  (-0.004432  0.001413  0.004648)
118:   3160.86   0.003250   16.42  0.000321  (-0.012069  0.009202 -0.009516)
119:   3167.56   0.003639   18.39  0.000359  (-0.014073 -0.012162  0.003543)
120:   3189.59   0.000419    2.12  0.000041  ( 0.001192 -0.002770 -0.005650)
121:   3195.47   0.001793    9.06  0.000175  (-0.004864  0.005890  0.010805)
122:   3197.93   0.001528    7.72  0.000149  ( 0.003202  0.008431  0.008230)
123:   3215.97   0.002602   13.15  0.000253  ( 0.011571  0.009559 -0.005219)
124:   3228.47   0.000208    1.05  0.000020  ( 0.002248 -0.000912 -0.003769)
125:   3231.51   0.000341    1.73  0.000033  ( 0.001342 -0.002212 -0.005126)
126:   3241.74   0.000963    4.87  0.000093  (-0.006914  0.004930  0.004537)
127:   3247.40   0.000924    4.67  0.000089  (-0.005328  0.003000 -0.007166)
128:   3263.50   0.001039    5.25  0.000099  ( 0.004912 -0.003395  0.007979)

--------------------------
THERMOCHEMISTRY AT 298.15K
--------------------------

Temperature         ... 298.15 K
Pressure            ... 1.00 atm
Total Mass          ... 372.33 AMU

Throughout the following assumptions are being made:
  (1) The electronic state is orbitally nondegenerate
  (2) There are no thermally accessible electronically excited states
  (3) Hindered rotations indicated by low frequency modes are not
      treated as such but are treated as vibrations and this may
      cause some error
  (4) All equations used are the standard statistical mechanics
      equations for an ideal gas
  (5) All vibrations are strictly harmonic

freq.      10.21  E(vib)   ...       0.58
freq.      21.88  E(vib)   ...       0.56
freq.      30.96  E(vib)   ...       0.55
freq.      35.08  E(vib)   ...       0.54
freq.      48.89  E(vib)   ...       0.53
freq.      55.13  E(vib)   ...       0.52
freq.      59.36  E(vib)   ...       0.51
freq.      86.95  E(vib)   ...       0.48
freq.      94.77  E(vib)   ...       0.47
freq.     100.18  E(vib)   ...       0.46
freq.     116.38  E(vib)   ...       0.44
freq.     135.08  E(vib)   ...       0.42
freq.     146.67  E(vib)   ...       0.41
freq.     158.06  E(vib)   ...       0.39
freq.     176.79  E(vib)   ...       0.38
freq.     200.51  E(vib)   ...       0.35
freq.     237.73  E(vib)   ...       0.32
freq.     244.09  E(vib)   ...       0.31
freq.     247.70  E(vib)   ...       0.31
freq.     258.55  E(vib)   ...       0.30
freq.     279.36  E(vib)   ...       0.28
freq.     306.51  E(vib)   ...       0.26
freq.     328.85  E(vib)   ...       0.24
freq.     345.27  E(vib)   ...       0.23
freq.     372.63  E(vib)   ...       0.21
freq.     386.19  E(vib)   ...       0.20
freq.     419.97  E(vib)   ...       0.18
freq.     420.86  E(vib)   ...       0.18
freq.     472.15  E(vib)   ...       0.15
freq.     491.02  E(vib)   ...       0.14
freq.     510.43  E(vib)   ...       0.14
freq.     524.81  E(vib)   ...       0.13
freq.     542.43  E(vib)   ...       0.12
freq.     563.86  E(vib)   ...       0.11
freq.     577.81  E(vib)   ...       0.11
freq.     597.25  E(vib)   ...       0.10
freq.     615.42  E(vib)   ...       0.10
freq.     642.57  E(vib)   ...       0.09
freq.     688.56  E(vib)   ...       0.07
freq.     719.03  E(vib)   ...       0.07
freq.     723.44  E(vib)   ...       0.07
freq.     726.98  E(vib)   ...       0.06
freq.     740.28  E(vib)   ...       0.06
freq.     768.01  E(vib)   ...       0.06
freq.     772.13  E(vib)   ...       0.05
freq.     782.15  E(vib)   ...       0.05
freq.     792.98  E(vib)   ...       0.05
freq.     815.81  E(vib)   ...       0.05
freq.     840.30  E(vib)   ...       0.04
freq.     846.83  E(vib)   ...       0.04
freq.     872.68  E(vib)   ...       0.04
freq.     875.86  E(vib)   ...       0.04
freq.     888.26  E(vib)   ...       0.04
freq.     895.47  E(vib)   ...       0.03
freq.     913.20  E(vib)   ...       0.03
freq.     957.50  E(vib)   ...       0.03
freq.     969.29  E(vib)   ...       0.03
freq.     992.73  E(vib)   ...       0.02
freq.     996.37  E(vib)   ...       0.02
freq.     999.99  E(vib)   ...       0.02
freq.    1001.30  E(vib)   ...       0.02
freq.    1030.34  E(vib)   ...       0.02
freq.    1050.56  E(vib)   ...       0.02
freq.    1071.23  E(vib)   ...       0.02
freq.    1083.43  E(vib)   ...       0.02
freq.    1096.41  E(vib)   ...       0.02
freq.    1108.08  E(vib)   ...       0.02
freq.    1138.23  E(vib)   ...       0.01
freq.    1139.24  E(vib)   ...       0.01
freq.    1141.52  E(vib)   ...       0.01
freq.    1171.12  E(vib)   ...       0.01
freq.    1171.91  E(vib)   ...       0.01
freq.    1175.67  E(vib)   ...       0.01
freq.    1196.24  E(vib)   ...       0.01
freq.    1205.20  E(vib)   ...       0.01
freq.    1212.54  E(vib)   ...       0.01
freq.    1216.85  E(vib)   ...       0.01
freq.    1240.37  E(vib)   ...       0.01
freq.    1257.43  E(vib)   ...       0.01
freq.    1290.63  E(vib)   ...       0.01
freq.    1296.21  E(vib)   ...       0.01
freq.    1307.79  E(vib)   ...       0.01
freq.    1315.56  E(vib)   ...       0.01
freq.    1333.71  E(vib)   ...       0.01
freq.    1343.20  E(vib)   ...       0.01
freq.    1378.67  E(vib)   ...       0.01
freq.    1389.59  E(vib)   ...       0.00
freq.    1399.60  E(vib)   ...       0.00
freq.    1403.62  E(vib)   ...       0.00
freq.    1446.77  E(vib)   ...       0.00
freq.    1456.31  E(vib)   ...       0.00
freq.    1465.97  E(vib)   ...       0.00
freq.    1466.26  E(vib)   ...       0.00
freq.    1470.32  E(vib)   ...       0.00
freq.    1472.94  E(vib)   ...       0.00
freq.    1473.09  E(vib)   ...       0.00
freq.    1482.76  E(vib)   ...       0.00
freq.    1499.10  E(vib)   ...       0.00
freq.    1536.62  E(vib)   ...       0.00
freq.    1546.14  E(vib)   ...       0.00
freq.    1596.98  E(vib)   ...       0.00
freq.    1644.10  E(vib)   ...       0.00
freq.    1650.04  E(vib)   ...       0.00
freq.    1657.72  E(vib)   ...       0.00
freq.    1664.00  E(vib)   ...       0.00
freq.    1699.28  E(vib)   ...       0.00
freq.    1804.90  E(vib)   ...       0.00
freq.    3038.95  E(vib)   ...       0.00
freq.    3075.50  E(vib)   ...       0.00
freq.    3101.89  E(vib)   ...       0.00
freq.    3111.12  E(vib)   ...       0.00
freq.    3149.17  E(vib)   ...       0.00
freq.    3160.86  E(vib)   ...       0.00
freq.    3167.56  E(vib)   ...       0.00
freq.    3189.59  E(vib)   ...       0.00
freq.    3195.47  E(vib)   ...       0.00
freq.    3197.93  E(vib)   ...       0.00
freq.    3215.97  E(vib)   ...       0.00
freq.    3228.47  E(vib)   ...       0.00
freq.    3231.51  E(vib)   ...       0.00
freq.    3241.74  E(vib)   ...       0.00
freq.    3247.40  E(vib)   ...       0.00
freq.    3263.50  E(vib)   ...       0.00

------------
INNER ENERGY
------------

The inner energy is: U= E(el) + E(ZPE) + E(vib) + E(rot) + E(trans)
    E(el)   - is the total energy from the electronic structure calculation
              = E(kin-el) + E(nuc-el) + E(el-el) + E(nuc-nuc)
    E(ZPE)  - the the zero temperature vibrational energy from the frequency calculation
    E(vib)  - the the finite temperature correction to E(ZPE) due to population
              of excited vibrational states
    E(rot)  - is the rotational thermal energy
    E(trans)- is the translational thermal energy

Summary of contributions to the inner energy U:
Electronic energy                ...  -1330.52868677 Eh
Zero point energy                ...      0.32681768 Eh     205.08 kcal/mol
Thermal vibrational correction   ...      0.02093390 Eh      13.14 kcal/mol
Thermal rotational correction    ...      0.00141627 Eh       0.89 kcal/mol
Thermal translational correction ...      0.00141627 Eh       0.89 kcal/mol
-----------------------------------------------------------------------

Rotational constants in cm-1:     0.008385     0.004169     0.003515

                             ****ORCA TERMINATED NORMALLY****
TOTAL RUN TIME: 0 days 10 hours 51 minutes 3 seconds 38 msec
