                         Program Version 5.0.4 -  RELEASE  -
|  1> %pal nprocs 24 end
|  2> %maxcore 3500
|  3> ! PBE0 D3BJ def2-TZVP TightSCF OPT FREQ TightOpt
|  4> ! CPCM(dmso)
|  5> %scf
|  6> MaxIter 800
|  7> end
|  8> %geom
|  9> MaxIter 800
| 10> MaxStep 0.2
| 11> end
| 12> *xyz 0 1
| 13> C        2.152029000      1.687241000     -0.883423000
| 14> C        3.217369000      1.108263000      0.033140000
| 15> O        3.481467000      1.619811000      1.092585000
| 16> O        3.790019000      0.026127000     -0.454402000
| 17> C        4.775415000     -0.592870000      0.380330000
| 18> H        2.297654000      2.766867000     -0.916123000
| 19> H        5.131379000     -1.454924000     -0.177199000
| 20> H        4.316467000     -0.902410000      1.318743000
| 21> C       -2.907799000     -2.402088000     -0.787087000
| 22> C       -2.636533000     -1.381261000      0.120284000
| 23> C       -1.550197000     -0.552328000     -0.087824000
| 24> C       -0.709911000     -0.705466000     -1.193837000
| 25> C       -1.004653000     -1.731834000     -2.105211000
| 26> C       -2.083801000     -2.563815000     -1.902050000
| 27> C        0.411822000      0.193926000     -1.333095000
| 28> C        0.730072000      1.318504000     -0.403309000
| 29> C       -0.257462000      2.455372000     -0.481167000
| 30> C       -0.930756000      2.759216000     -1.653979000
| 31> C       -1.839526000      3.807322000     -1.713891000
| 32> C       -2.079941000      4.559014000     -0.575649000
| 33> C       -1.417965000      4.276270000      0.612429000
| 34> C       -0.502596000      3.229557000      0.662126000
| 35> O       -3.930543000     -3.270414000     -0.667659000
| 36> C       -4.765755000     -3.156759000      0.471107000
| 37> O        0.189369000      2.887043000      1.770295000
| 38> C       -0.051873000      3.613162000      2.960560000
| 39> N        1.267788000      0.161176000     -2.313986000
| 40> O        1.386477000     -0.545697000     -3.312443000
| 41> H       -3.254385000     -1.231945000      0.994988000
| 42> H       -1.352531000      0.225480000      0.638624000
| 43> H       -0.375482000     -1.874835000     -2.971503000
| 44> H       -2.305308000     -3.359875000     -2.603516000
| 45> H        0.781400000      0.959125000      0.624377000
| 46> H       -0.749031000      2.155081000     -2.536931000
| 47> H       -2.357458000      4.026863000     -2.639684000
| 48> H       -2.791182000      5.376919000     -0.601456000
| 49> H       -1.619169000      4.872904000      1.491947000
| 50> H       -5.502127000     -3.952956000      0.385472000
| 51> H       -5.274674000     -2.189039000      0.492086000
| 52> H       -4.192241000     -3.286257000      1.393346000
| 53> H       -1.097127000      3.525895000      3.270325000
| 54> H        0.204077000      4.669212000      2.836769000
| 55> H        0.591052000      3.169598000      3.717927000
| 56> O        2.242032000      1.194337000     -2.205006000
| 57> H        5.592573000      0.101881000      0.573655000
| 58> *
| 59>
| 60>                          ****END OF INPUT****
 Total Charge           Charge          ....    0
 Multiplicity           Mult            ....    1
 Number of Electrons    NEL             ....  188
Dispersion correction           -0.052373085
FINAL SINGLE POINT ENERGY     -1240.585887889130
Dispersion correction            ... done
Dispersion correction           -0.052370426
FINAL SINGLE POINT ENERGY     -1240.586050536814
Dispersion correction            ... done
Dispersion correction           -0.052334351
FINAL SINGLE POINT ENERGY     -1240.586157030868
Dispersion correction            ... done
FINAL SINGLE POINT ENERGY     -1240.586194871324
FINAL SINGLE POINT ENERGY     -1240.586225189847
FINAL SINGLE POINT ENERGY     -1240.586245236722
FINAL SINGLE POINT ENERGY     -1240.586193841074
FINAL SINGLE POINT ENERGY     -1240.586256998891
FINAL SINGLE POINT ENERGY     -1240.586260409918
FINAL SINGLE POINT ENERGY     -1240.586255149853
FINAL SINGLE POINT ENERGY     -1240.586231850064
FINAL SINGLE POINT ENERGY     -1240.586224997083
FINAL SINGLE POINT ENERGY     -1240.586216575332
FINAL SINGLE POINT ENERGY     -1240.586224111895
FINAL SINGLE POINT ENERGY     -1240.586231559412
FINAL SINGLE POINT ENERGY     -1240.586228019524
FINAL SINGLE POINT ENERGY     -1240.586219640524
Dispersion correction           -0.052266318
FINAL SINGLE POINT ENERGY     -1240.586220693822
Dispersion correction            ... done
Dispersion correction           -0.052268685
FINAL SINGLE POINT ENERGY     -1240.586226377772
Dispersion correction            ... done
                    ***********************HURRAY********************

CARTESIAN COORDINATES (ANGSTROEM)
---------------------------------
  C      2.106574    1.667983   -0.741876
  C      3.131573    0.952245    0.127451
  O      3.227794    1.181796    1.307047
  O      3.871512    0.089363   -0.540212
  C      4.843853   -0.630891    0.227934
  H      2.307952    2.738501   -0.684301
  H      5.341405   -1.291707   -0.476461
  H      4.349289   -1.206147    1.010475
  C     -2.889673   -2.474398   -0.794365
  C     -2.635664   -1.481508    0.150182
  C     -1.559664   -0.629848   -0.025407
  C     -0.714293   -0.732639   -1.134609
  C     -0.988091   -1.735464   -2.078780
  C     -2.055073   -2.589802   -1.907597
  C      0.381629    0.201011   -1.252581
  C      0.669366    1.323292   -0.307537
  C     -0.298278    2.474350   -0.436803
  C     -0.982756    2.731125   -1.614221
  C     -1.858366    3.803858   -1.721261
  C     -2.054898    4.628115   -0.626128
  C     -1.381318    4.393762    0.565898
  C     -0.499670    3.322138    0.662499
  O     -3.904639   -3.354395   -0.715272
  C     -4.781074   -3.260471    0.394313
  O      0.204523    3.024994    1.775103
  C      0.023973    3.839181    2.918766
  N      1.231802    0.223472   -2.241136
  O      1.360473   -0.442952   -3.264320
  H     -3.265396   -1.364210    1.021484
  H     -1.382140    0.134390    0.721373
  H     -0.356346   -1.838391   -2.948971
  H     -2.263030   -3.364033   -2.637018
  H      0.682522    0.981240    0.727191
  H     -0.835607    2.074372   -2.465119
  H     -2.383940    3.986293   -2.650752
  H     -2.739060    5.466810   -0.689398
  H     -1.546736    5.047695    1.411448
  H     -5.517252   -4.050657    0.263821
  H     -5.285533   -2.290473    0.415744
  H     -4.243767   -3.412636    1.334520
  H     -1.014372    3.813305    3.261099
  H      0.314293    4.873712    2.715175
  H      0.671926    3.424116    3.687847
  O      2.177468    1.282864   -2.098260
  H      5.557143    0.062031    0.673699

 Multiplicity           Mult            ....    1
 Number of Electrons    NEL             ....  188
 Basis Dimension        Dim             ....  920

ORBITAL ENERGIES
----------------

  NO   OCC          E(Eh)            E(eV)
   0   2.0000     -19.280089      -524.6379
   1   2.0000     -19.271252      -524.3974
   2   2.0000     -19.248688      -523.7834
   3   2.0000     -19.247232      -523.7438
   4   2.0000     -19.218659      -522.9663
   5   2.0000     -19.208737      -522.6963
   6   2.0000     -14.579819      -396.7370
   7   2.0000     -10.364368      -282.0288
   8   2.0000     -10.311469      -280.5893
   9   2.0000     -10.295446      -280.1533
  10   2.0000     -10.292710      -280.0789
  11   2.0000     -10.289714      -279.9974
  12   2.0000     -10.273316      -279.5511
  13   2.0000     -10.267316      -279.3879
  14   2.0000     -10.267182      -279.3842
  15   2.0000     -10.266842      -279.3750
  16   2.0000     -10.250971      -278.9431
  17   2.0000     -10.242225      -278.7051
  18   2.0000     -10.239849      -278.6405
  19   2.0000     -10.235463      -278.5211
  20   2.0000     -10.231863      -278.4232
  21   2.0000     -10.230850      -278.3956
  22   2.0000     -10.230603      -278.3889
  23   2.0000     -10.228597      -278.3343
  24   2.0000     -10.226992      -278.2906
  25   2.0000     -10.222438      -278.1667
  26   2.0000      -1.227909       -33.4131
  27   2.0000      -1.160993       -31.5922
  28   2.0000      -1.110928       -30.2299
  29   2.0000      -1.110022       -30.2052
  30   2.0000      -1.096615       -29.8404
  31   2.0000      -1.067308       -29.0429
  32   2.0000      -0.928811       -25.2742
  33   2.0000      -0.893612       -24.3164
  34   2.0000      -0.884323       -24.0637
  35   2.0000      -0.839599       -22.8467
  36   2.0000      -0.797154       -21.6917
  37   2.0000      -0.791767       -21.5451
  38   2.0000      -0.782439       -21.2912
  39   2.0000      -0.779283       -21.2054
  40   2.0000      -0.756608       -20.5883
  41   2.0000      -0.730549       -19.8793
  42   2.0000      -0.721897       -19.6438
  43   2.0000      -0.699041       -19.0219
  44   2.0000      -0.654711       -17.8156
  45   2.0000      -0.641550       -17.4575
  46   2.0000      -0.626772       -17.0553
  47   2.0000      -0.623479       -16.9657
  48   2.0000      -0.612686       -16.6720
  49   2.0000      -0.594307       -16.1719
  50   2.0000      -0.572947       -15.5907
  51   2.0000      -0.568998       -15.4832
  52   2.0000      -0.551953       -15.0194
  53   2.0000      -0.546764       -14.8782
  54   2.0000      -0.539847       -14.6900
  55   2.0000      -0.519597       -14.1390
  56   2.0000      -0.515703       -14.0330
  57   2.0000      -0.511921       -13.9301
  58   2.0000      -0.508440       -13.8354
  59   2.0000      -0.503104       -13.6902
  60   2.0000      -0.495466       -13.4823
  61   2.0000      -0.490404       -13.3446
  62   2.0000      -0.488224       -13.2853
  63   2.0000      -0.474660       -12.9162
  64   2.0000      -0.464477       -12.6391
  65   2.0000      -0.458721       -12.4824
  66   2.0000      -0.458015       -12.4632
  67   2.0000      -0.448088       -12.1931
  68   2.0000      -0.444403       -12.0928
  69   2.0000      -0.437107       -11.8943
  70   2.0000      -0.432201       -11.7608
  71   2.0000      -0.427565       -11.6346
  72   2.0000      -0.419202       -11.4071
  73   2.0000      -0.407050       -11.0764
  74   2.0000      -0.404344       -11.0028
  75   2.0000      -0.397242       -10.8095
  76   2.0000      -0.386804       -10.5255
  77   2.0000      -0.384988       -10.4760
  78   2.0000      -0.382030       -10.3956
  79   2.0000      -0.380577       -10.3560
  80   2.0000      -0.369533       -10.0555
  81   2.0000      -0.360735        -9.8161
  82   2.0000      -0.354716        -9.6523
  83   2.0000      -0.347070        -9.4443
  84   2.0000      -0.344499        -9.3743
  85   2.0000      -0.344171        -9.3654
  86   2.0000      -0.336240        -9.1495
  87   2.0000      -0.311500        -8.4764
  88   2.0000      -0.303528        -8.2594
  89   2.0000      -0.283741        -7.7210
  90   2.0000      -0.280712        -7.6386
  91   2.0000      -0.270114        -7.3502
  92   2.0000      -0.241967        -6.5842
  93   2.0000      -0.222363        -6.0508
  94   0.0000      -0.049542        -1.3481
  95   0.0000      -0.021201        -0.5769
  96   0.0000      -0.014590        -0.3970
  97   0.0000      -0.004012        -0.1092
  98   0.0000       0.003066         0.0834

MULLIKEN ATOMIC CHARGES
-----------------------
   0 C :    0.154565
   1 C :    0.242444
   2 O :   -0.391152
   3 O :   -0.213221
   4 C :   -0.260401
   5 H :    0.172101
   6 H :    0.165431
   7 H :    0.157794
   8 C :    0.344015
   9 C :   -0.322754
  10 C :   -0.231487
  11 C :    0.083872
  12 C :   -0.258922
  13 C :   -0.239743
  14 C :   -0.032456
  15 C :    0.133202
  16 C :   -0.114035
  17 C :   -0.141569
  18 C :   -0.209943
  19 C :   -0.144948
  20 C :   -0.295497
  21 C :    0.232151
  22 O :   -0.250462
  23 C :   -0.253429
  24 O :   -0.258726
  25 C :   -0.282459
  26 N :    0.445253
  27 O :   -0.483139
  28 H :    0.162985
  29 H :    0.166280
  30 H :    0.156578
  31 H :    0.139060
  32 H :    0.148760
  33 H :    0.165259
  34 H :    0.147682
  35 H :    0.153043
  36 H :    0.165198
  37 H :    0.163887
  38 H :    0.150330
  39 H :    0.150464
  40 H :    0.151196
  41 H :    0.151491
  42 H :    0.162297
  43 O :   -0.238561
  44 H :    0.157565
Sum of atomic charges:   -0.0000000

LOEWDIN ATOMIC CHARGES
----------------------
   0 C :   -0.239714
   1 C :   -0.482833
   2 O :    0.086961
   3 O :    0.274219
   4 C :   -0.294159
   5 H :    0.181719
   6 H :    0.123688
   7 H :    0.121040
   8 C :   -0.261417
   9 C :   -0.135083
  10 C :   -0.087400
  11 C :   -0.140701
  12 C :   -0.099985
  13 C :   -0.119753
  14 C :   -0.156899
  15 C :   -0.147291
  16 C :   -0.108828
  17 C :   -0.105722
  18 C :   -0.164271
  19 C :   -0.144084
  20 C :   -0.139292
  21 C :   -0.231168
  22 O :    0.246961
  23 C :   -0.323332
  24 O :    0.248870
  25 C :   -0.324225
  26 N :    0.076142
  27 O :   -0.137093
  28 H :    0.162490
  29 H :    0.166446
  30 H :    0.157510
  31 H :    0.158968
  32 H :    0.186245
  33 H :    0.164228
  34 H :    0.152439
  35 H :    0.154910
  36 H :    0.160493
  37 H :    0.121902
  38 H :    0.117657
  39 H :    0.117561
  40 H :    0.117597
  41 H :    0.117615
  42 H :    0.121896
  43 O :    0.184678
  44 H :    0.121013

  Mayer bond orders larger than 0.100000
B(  0-C ,  1-C ) :   0.9537 B(  0-C ,  5-H ) :   0.9108 B(  0-C , 15-C ) :   0.9008
B(  0-C , 43-O ) :   0.9917 B(  1-C ,  2-O ) :   1.9694 B(  1-C ,  3-O ) :   1.2835
B(  3-O ,  4-C ) :   0.8861 B(  4-C ,  6-H ) :   0.9616 B(  4-C ,  7-H ) :   0.9663
B(  4-C , 44-H ) :   0.9667 B(  8-C ,  9-C ) :   1.2708 B(  8-C , 13-C ) :   1.3186
B(  8-C , 22-O ) :   1.1662 B(  9-C , 10-C ) :   1.4779 B(  9-C , 28-H ) :   0.9521
B( 10-C , 11-C ) :   1.3179 B( 10-C , 29-H ) :   0.9494 B( 11-C , 12-C ) :   1.3283
B( 11-C , 14-C ) :   0.9812 B( 12-C , 13-C ) :   1.4884 B( 12-C , 30-H ) :   0.9633
B( 13-C , 31-H ) :   0.9972 B( 14-C , 15-C ) :   0.9482 B( 14-C , 26-N ) :   1.5785
B( 14-C , 27-O ) :   0.2278 B( 15-C , 16-C ) :   0.8349 B( 15-C , 32-H ) :   0.9711
B( 16-C , 17-C ) :   1.3555 B( 16-C , 21-C ) :   1.3178 B( 17-C , 18-C ) :   1.4020
B( 17-C , 33-H ) :   0.9746 B( 18-C , 19-C ) :   1.4112 B( 18-C , 34-H ) :   0.9809
B( 19-C , 20-C ) :   1.3902 B( 19-C , 35-H ) :   0.9645 B( 20-C , 21-C ) :   1.3829
B( 20-C , 36-H ) :   0.9590 B( 21-C , 24-O ) :   1.1197 B( 22-O , 23-C ) :   0.9234
B( 23-C , 37-H ) :   0.9630 B( 23-C , 38-H ) :   0.9606 B( 23-C , 39-H ) :   0.9606
B( 24-O , 25-C ) :   0.9371 B( 25-C , 40-H ) :   0.9620 B( 25-C , 41-H ) :   0.9619
B( 25-C , 42-H ) :   0.9646 B( 26-N , 27-O ) :   1.3895 B( 26-N , 43-O ) :   0.8236

Dispersion correction           -0.052268972
FINAL SINGLE POINT ENERGY     -1240.586226557372

DIPOLE MOMENT
-------------
                                X             Y             Z
Electronic contribution:      8.19858      -0.48931     -10.40660
Nuclear contribution   :     -9.67392       1.15930      13.08461
                        -----------------------------------------
Total Dipole Moment    :     -1.47534       0.66999       2.67801
                        -----------------------------------------
Magnitude (a.u.)       :      3.13005
Magnitude (Debye)      :      7.95597

Dispersion correction in the Hessian             ... done   (      0.7 sec)

VIBRATIONAL FREQUENCIES
-----------------------

Scaling factor for frequencies =  1.000000000  (already applied!)

   0:         0.00 cm**-1
   1:         0.00 cm**-1
   2:         0.00 cm**-1
   3:         0.00 cm**-1
   4:         0.00 cm**-1
   5:         0.00 cm**-1
   6:         5.10 cm**-1
   7:        15.39 cm**-1
   8:        25.69 cm**-1
   9:        37.32 cm**-1
  10:        46.14 cm**-1
  11:        62.05 cm**-1
  12:        87.40 cm**-1
  13:        95.09 cm**-1
  14:        98.77 cm**-1
  15:       114.66 cm**-1
  16:       131.88 cm**-1
  17:       144.44 cm**-1
  18:       153.72 cm**-1
  19:       163.63 cm**-1
  20:       181.12 cm**-1
  21:       208.38 cm**-1
  22:       236.56 cm**-1
  23:       237.98 cm**-1
  24:       248.98 cm**-1
  25:       252.07 cm**-1
  26:       290.63 cm**-1
  27:       300.58 cm**-1
  28:       313.30 cm**-1
  29:       337.75 cm**-1
  30:       346.58 cm**-1
  31:       376.25 cm**-1
  32:       424.77 cm**-1
  33:       430.89 cm**-1
  34:       468.64 cm**-1
  35:       479.55 cm**-1
  36:       495.85 cm**-1
  37:       502.78 cm**-1
  38:       538.46 cm**-1
  39:       555.73 cm**-1
  40:       570.29 cm**-1
  41:       586.36 cm**-1
  42:       606.28 cm**-1
  43:       619.20 cm**-1
  44:       649.94 cm**-1
  45:       665.57 cm**-1
  46:       687.34 cm**-1
  47:       723.04 cm**-1
  48:       750.89 cm**-1
  49:       767.44 cm**-1
  50:       773.96 cm**-1
  51:       783.90 cm**-1
  52:       808.76 cm**-1
  53:       820.55 cm**-1
  54:       826.74 cm**-1
  55:       845.86 cm**-1
  56:       861.21 cm**-1
  57:       870.60 cm**-1
  58:       875.04 cm**-1
  59:       909.18 cm**-1
  60:       930.79 cm**-1
  61:       963.50 cm**-1
  62:       969.90 cm**-1
  63:       977.94 cm**-1
  64:       993.03 cm**-1
  65:      1014.82 cm**-1
  66:      1028.12 cm**-1
  67:      1060.68 cm**-1
  68:      1070.91 cm**-1
  69:      1074.94 cm**-1
  70:      1084.51 cm**-1
  71:      1096.57 cm**-1
  72:      1100.07 cm**-1
  73:      1137.66 cm**-1
  74:      1139.25 cm**-1
  75:      1170.84 cm**-1
  76:      1171.13 cm**-1
  77:      1171.41 cm**-1
  78:      1174.96 cm**-1
  79:      1195.30 cm**-1
  80:      1201.73 cm**-1
  81:      1205.73 cm**-1
  82:      1208.71 cm**-1
  83:      1214.80 cm**-1
  84:      1235.46 cm**-1
  85:      1261.41 cm**-1
  86:      1282.31 cm**-1
  87:      1300.25 cm**-1
  88:      1307.66 cm**-1
  89:      1312.15 cm**-1
  90:      1320.26 cm**-1
  91:      1329.75 cm**-1
  92:      1341.30 cm**-1
  93:      1361.05 cm**-1
  94:      1370.76 cm**-1
  95:      1390.07 cm**-1
  96:      1431.35 cm**-1
  97:      1464.76 cm**-1
  98:      1465.91 cm**-1
  99:      1466.30 cm**-1
 100:      1469.21 cm**-1
 101:      1471.16 cm**-1
 102:      1473.30 cm**-1
 103:      1474.38 cm**-1
 104:      1474.43 cm**-1
 105:      1484.10 cm**-1
 106:      1486.64 cm**-1
 107:      1498.77 cm**-1
 108:      1537.09 cm**-1
 109:      1561.09 cm**-1
 110:      1623.47 cm**-1
 111:      1649.32 cm**-1
 112:      1663.93 cm**-1
 113:      1668.35 cm**-1
 114:      1711.12 cm**-1
 115:      1790.83 cm**-1
 116:      3037.91 cm**-1
 117:      3038.85 cm**-1
 118:      3075.38 cm**-1
 119:      3109.53 cm**-1
 120:      3110.79 cm**-1
 121:      3124.46 cm**-1
 122:      3129.00 cm**-1
 123:      3160.88 cm**-1
 124:      3166.85 cm**-1
 125:      3169.08 cm**-1
 126:      3189.07 cm**-1
 127:      3194.22 cm**-1
 128:      3196.80 cm**-1
 129:      3206.24 cm**-1
 130:      3211.25 cm**-1
 131:      3214.42 cm**-1
 132:      3231.27 cm**-1
 133:      3234.41 cm**-1
 134:      3248.22 cm**-1

IR SPECTRUM
-----------

 Mode   freq       eps      Int      T**2         TX        TY        TZ
       cm**-1   L/(mol*cm) km/mol    a.u.
----------------------------------------------------------------------------
  6:      5.10   0.000537    2.71  0.032858  ( 0.105259  0.145826 -0.022659)
  7:     15.39   0.000486    2.46  0.009853  (-0.066887 -0.062402  0.038533)
  8:     25.69   0.000081    0.41  0.000980  (-0.031005  0.004286  0.000704)
  9:     37.32   0.000214    1.08  0.001792  (-0.028248  0.021571 -0.022995)
 10:     46.14   0.000148    0.75  0.001004  (-0.029250 -0.008054 -0.009144)
 11:     62.05   0.000169    0.85  0.000850  (-0.010680 -0.010621 -0.024966)
 12:     87.40   0.000204    1.03  0.000727  (-0.006053  0.025770 -0.005138)
 13:     95.09   0.000732    3.70  0.002402  ( 0.046861 -0.005745  0.013158)
 14:     98.77   0.001161    5.87  0.003669  (-0.022741 -0.045114  0.033421)
 15:    114.66   0.000323    1.63  0.000880  ( 0.004008 -0.026523  0.012686)
 16:    131.88   0.000814    4.11  0.001927  (-0.023572  0.027564 -0.024723)
 17:    144.44   0.000722    3.65  0.001559  (-0.031102  0.011639 -0.021358)
 18:    153.72   0.000394    1.99  0.000801  (-0.011657 -0.023514  0.010575)
 19:    163.63   0.000385    1.95  0.000735  (-0.022834 -0.014412 -0.002434)
 20:    181.12   0.000761    3.85  0.001311  (-0.028222 -0.022680  0.000713)
 21:    208.38   0.000455    2.30  0.000682  ( 0.017463  0.019420  0.000159)
 22:    236.56   0.002987   15.09  0.003940  ( 0.052470  0.032751 -0.010679)
 23:    237.98   0.000113    0.57  0.000148  (-0.003614 -0.005426 -0.010266)
 24:    248.98   0.000997    5.04  0.001250  (-0.015719  0.014149  0.028336)
 25:    252.07   0.000178    0.90  0.000220  (-0.010232  0.008432  0.006653)
 26:    290.63   0.000767    3.88  0.000824  ( 0.025858 -0.007162  0.010195)
 27:    300.58   0.000967    4.88  0.001004  ( 0.023584  0.013394 -0.016369)
 28:    313.30   0.000629    3.18  0.000626  ( 0.022944  0.008863  0.004587)
 29:    337.75   0.005437   27.47  0.005023  (-0.040631  0.057978  0.003286)
 30:    346.58   0.001960    9.90  0.001764  (-0.031013 -0.027808  0.005422)
 31:    376.25   0.002771   14.00  0.002298  ( 0.039371  0.022918 -0.014931)
 32:    424.77   0.000257    1.30  0.000189  ( 0.009758 -0.006750  0.006941)
 33:    430.89   0.001671    8.45  0.001210  ( 0.030288 -0.010072  0.013844)
 34:    468.64   0.000135    0.68  0.000090  ( 0.003426  0.002129 -0.008567)
 35:    479.55   0.001995   10.08  0.001298  ( 0.027834  0.021109 -0.008813)
 36:    495.85   0.000914    4.62  0.000575  (-0.013954  0.017323  0.008953)
 37:    502.78   0.002398   12.12  0.001488  (-0.018348 -0.031948  0.011443)
 38:    538.46   0.009879   49.93  0.005726  (-0.038208  0.054224 -0.036406)
 39:    555.73   0.000781    3.95  0.000439  ( 0.001118 -0.020900  0.000830)
 40:    570.29   0.002288   11.56  0.001252  (-0.013234  0.030647 -0.011723)
 41:    586.36   0.000121    0.61  0.000064  (-0.001119 -0.003267  0.007230)
 42:    606.28   0.005786   29.24  0.002978  (-0.024073 -0.044936 -0.019485)
 43:    619.20   0.015555   78.61  0.007839  ( 0.071489  0.051601  0.008133)
 44:    649.94   0.004197   21.21  0.002015  ( 0.038227  0.022673 -0.006307)
 45:    665.57   0.003582   18.10  0.001679  ( 0.016086  0.037687  0.000660)
 46:    687.34   0.002388   12.07  0.001084  (-0.029824  0.013266  0.004307)
 47:    723.04   0.002112   10.68  0.000912  (-0.011679 -0.017665 -0.021524)
 48:    750.89   0.000472    2.38  0.000196  (-0.011015 -0.006897  0.005207)
 49:    767.44   0.013252   66.97  0.005389  (-0.047865 -0.043666  0.034507)
 50:    773.96   0.015491   78.29  0.006246  (-0.063583 -0.042102  0.020756)
 51:    783.90   0.002412   12.19  0.000960  ( 0.015826  0.006173 -0.025917)
 52:    808.76   0.004561   23.05  0.001760  ( 0.028753  0.019248  0.023718)
 53:    820.55   0.008875   44.85  0.003375  (-0.048692  0.007580 -0.030773)
 54:    826.74   0.001343    6.79  0.000507  (-0.015065  0.012912 -0.010644)
 55:    845.86   0.010367   52.39  0.003825  (-0.053998  0.018411 -0.023878)
 56:    861.21   0.015063   76.12  0.005458  (-0.022741  0.062574 -0.032025)
 57:    870.60   0.032603  164.76  0.011686  ( 0.063000  0.069398  0.053864)
 58:    875.04   0.007831   39.57  0.002793  ( 0.029159  0.034268  0.027714)
 59:    909.18   0.019247   97.27  0.006606  ( 0.074320  0.031241 -0.010341)
 60:    930.79   0.003057   15.45  0.001025  ( 0.016224 -0.017258  0.021541)
 61:    963.50   0.000377    1.91  0.000122  ( 0.008627  0.006905 -0.000076)
 62:    969.90   0.000086    0.44  0.000028  ( 0.001320 -0.003995  0.003180)
 63:    977.94   0.000006    0.03  0.000002  ( 0.001157  0.000038  0.000716)
 64:    993.03   0.000009    0.05  0.000003  (-0.000412 -0.001261 -0.001102)
 65:   1014.82   0.002383   12.05  0.000733  ( 0.003778  0.019259  0.018648)
 66:   1028.12   0.000458    2.32  0.000139  ( 0.009110 -0.006074 -0.004390)
 67:   1060.68   0.017535   88.62  0.005159  (-0.052211  0.030180 -0.039015)
 68:   1070.91   0.009196   46.47  0.002680  (-0.006976  0.037504  0.034993)
 69:   1074.94   0.022002  111.19  0.006387  ( 0.043670 -0.014876 -0.065262)
 70:   1084.51   0.008251   41.69  0.002374  ( 0.017926 -0.003963  0.045133)
 71:   1096.57   0.022506  113.73  0.006405  ( 0.048256  0.044722  0.045563)
 72:   1100.07   0.008705   43.99  0.002469  ( 0.041084  0.015522 -0.023250)
 73:   1137.66   0.002792   14.11  0.000766  ( 0.002004  0.003370  0.027394)
 74:   1139.25   0.016156   81.65  0.004426  (-0.004030 -0.037777 -0.054609)
 75:   1170.84   0.000157    0.80  0.000042  (-0.002798  0.004461 -0.003773)
 76:   1171.13   0.000311    1.57  0.000083  (-0.006512 -0.002747  0.005745)
 77:   1171.41   0.000137    0.69  0.000037  ( 0.003905  0.004190 -0.001932)
 78:   1174.96   0.001862    9.41  0.000494  (-0.001210  0.015345  0.016046)
 79:   1195.30   0.004018   20.31  0.001049  ( 0.021424  0.023900 -0.004343)
 80:   1201.73   0.015546   78.57  0.004037  (-0.050866 -0.024145  0.029441)
 81:   1205.73   0.005793   29.28  0.001499  ( 0.028807  0.008140 -0.024561)
 82:   1208.71   0.000465    2.35  0.000120  ( 0.004282 -0.001714 -0.009944)
 83:   1214.80   0.001187    6.00  0.000305  (-0.007918 -0.010556 -0.011437)
 84:   1235.46   0.003828   19.35  0.000967  ( 0.015417 -0.007632  0.025904)
 85:   1261.41   0.014297   72.25  0.003537  (-0.037740  0.022374  0.040150)
 86:   1282.31   0.032736  165.43  0.007967  (-0.000157 -0.005388  0.089093)
 87:   1300.25   0.056499  285.52  0.013560  ( 0.062784  0.053948  0.081901)
 88:   1307.66   0.100733  509.06  0.024039  (-0.122329 -0.050392  0.080843)
 89:   1312.15   0.048286  244.02  0.011484  ( 0.098430 -0.035810  0.022646)
 90:   1320.26   0.051980  262.69  0.012286  (-0.053557  0.095695  0.016138)
 91:   1329.75   0.011748   59.37  0.002757  ( 0.043630 -0.028809  0.004859)
 92:   1341.30   0.007079   35.77  0.001647  ( 0.010157  0.033640  0.020302)
 93:   1361.05   0.017669   89.29  0.004051  (-0.029447  0.044671  0.034474)
 94:   1370.76   0.036276  183.32  0.008258  ( 0.066850 -0.001140 -0.061548)
 95:   1390.07   0.010711   54.13  0.002405  (-0.005014 -0.001498  0.048756)
 96:   1431.35   0.047814  241.63  0.010424  (-0.083745 -0.019908  0.054909)
 97:   1464.76   0.010505   53.09  0.002238  ( 0.031304  0.017338  0.030942)
 98:   1465.91   0.004881   24.66  0.001039  (-0.024408 -0.019836  0.007056)
 99:   1466.30   0.003375   17.06  0.000718  (-0.008691 -0.022663  0.011366)
100:   1469.21   0.011061   55.90  0.002349  (-0.034051  0.034232 -0.004254)
101:   1471.16   0.003167   16.00  0.000672  (-0.009329  0.012195  0.020880)
102:   1473.30   0.004028   20.36  0.000853  (-0.023292 -0.009825  0.014632)
103:   1474.38   0.003434   17.36  0.000727  (-0.022053 -0.012720  0.008876)
104:   1474.43   0.003453   17.45  0.000731  ( 0.008113 -0.018901  0.017543)
105:   1484.10   0.005109   25.82  0.001074  (-0.021410  0.004419 -0.024420)
106:   1486.64   0.005162   26.09  0.001084  (-0.024139 -0.019146  0.011593)
107:   1498.77   0.014709   74.33  0.003063  (-0.013886 -0.000511 -0.053568)
108:   1537.09   0.036493  184.42  0.007409  (-0.035203  0.010288 -0.077871)
109:   1561.09   0.039394  199.08  0.007875  ( 0.064174  0.061280 -0.001223)
110:   1623.47   0.008670   43.82  0.001667  ( 0.017300  0.032868  0.016943)
111:   1649.32   0.009911   50.08  0.001875  (-0.011174  0.016610  0.038398)
112:   1663.93   0.016413   82.94  0.003078  ( 0.018159 -0.008103  0.051796)
113:   1668.35   0.057410  290.13  0.010739  ( 0.084121  0.052695 -0.029756)
114:   1711.12   0.146242  739.05  0.026671  ( 0.101028 -0.029855 -0.124791)
115:   1790.83   0.091428  462.04  0.015932  ( 0.002301  0.048691  0.116429)
116:   3037.91   0.012203   61.67  0.001254  (-0.002008  0.019205  0.029676)
117:   3038.85   0.014408   72.81  0.001480  ( 0.027144  0.003831 -0.026983)
118:   3075.38   0.005261   26.59  0.000534  (-0.017795  0.011645 -0.009035)
119:   3109.53   0.007337   37.08  0.000736  (-0.020328 -0.016065  0.008061)
120:   3110.79   0.007349   37.14  0.000737  ( 0.016056 -0.016963  0.013846)
121:   3124.46   0.000605    3.06  0.000060  ( 0.001477  0.007206  0.002520)
122:   3129.00   0.000787    3.98  0.000078  ( 0.004575  0.002926  0.007001)
123:   3160.88   0.003202   16.18  0.000316  (-0.012071 -0.012628  0.003309)
124:   3166.85   0.003806   19.23  0.000375  (-0.011824  0.007932 -0.013127)
125:   3169.08   0.003888   19.65  0.000383  ( 0.012562  0.014630  0.003324)
126:   3189.07   0.000299    1.51  0.000029  (-0.000924  0.003620  0.003912)
127:   3194.22   0.001887    9.53  0.000184  (-0.005513  0.007334  0.010006)
128:   3196.80   0.001692    8.55  0.000165  ( 0.006677 -0.010389 -0.003552)
129:   3206.24   0.001457    7.36  0.000142  ( 0.006965  0.009157  0.003068)
130:   3211.25   0.000710    3.59  0.000069  (-0.004241 -0.006458 -0.003053)
131:   3214.42   0.002886   14.59  0.000280  (-0.009196  0.005533 -0.012846)
132:   3231.27   0.000370    1.87  0.000036  ( 0.000931 -0.004060 -0.004287)
133:   3234.41   0.000469    2.37  0.000045  (-0.005215 -0.002632  0.003338)
134:   3248.22   0.000956    4.83  0.000092  ( 0.007472  0.005346 -0.002733)

--------------------------
THERMOCHEMISTRY AT 298.15K
--------------------------

Temperature         ... 298.15 K
Pressure            ... 1.00 atm
Total Mass          ... 357.36 AMU

Throughout the following assumptions are being made:
  (1) The electronic state is orbitally nondegenerate
  (2) There are no thermally accessible electronically excited states
  (3) Hindered rotations indicated by low frequency modes are not
      treated as such but are treated as vibrations and this may
      cause some error
  (4) All equations used are the standard statistical mechanics
      equations for an ideal gas
  (5) All vibrations are strictly harmonic

freq.       5.10  E(vib)   ...       0.59
freq.      15.39  E(vib)   ...       0.57
freq.      25.69  E(vib)   ...       0.56
freq.      37.32  E(vib)   ...       0.54
freq.      46.14  E(vib)   ...       0.53
freq.      62.05  E(vib)   ...       0.51
freq.      87.40  E(vib)   ...       0.48
freq.      95.09  E(vib)   ...       0.47
freq.      98.77  E(vib)   ...       0.46
freq.     114.66  E(vib)   ...       0.44
freq.     131.88  E(vib)   ...       0.42
freq.     144.44  E(vib)   ...       0.41
freq.     153.72  E(vib)   ...       0.40
freq.     163.63  E(vib)   ...       0.39
freq.     181.12  E(vib)   ...       0.37
freq.     208.38  E(vib)   ...       0.34
freq.     236.56  E(vib)   ...       0.32
freq.     237.98  E(vib)   ...       0.32
freq.     248.98  E(vib)   ...       0.31
freq.     252.07  E(vib)   ...       0.30
freq.     290.63  E(vib)   ...       0.27
freq.     300.58  E(vib)   ...       0.26
freq.     313.30  E(vib)   ...       0.25
freq.     337.75  E(vib)   ...       0.24
freq.     346.58  E(vib)   ...       0.23
freq.     376.25  E(vib)   ...       0.21
freq.     424.77  E(vib)   ...       0.18
freq.     430.89  E(vib)   ...       0.18
freq.     468.64  E(vib)   ...       0.16
freq.     479.55  E(vib)   ...       0.15
freq.     495.85  E(vib)   ...       0.14
freq.     502.78  E(vib)   ...       0.14
freq.     538.46  E(vib)   ...       0.12
freq.     555.73  E(vib)   ...       0.12
freq.     570.29  E(vib)   ...       0.11
freq.     586.36  E(vib)   ...       0.11
freq.     606.28  E(vib)   ...       0.10
freq.     619.20  E(vib)   ...       0.09
freq.     649.94  E(vib)   ...       0.08
freq.     665.57  E(vib)   ...       0.08
freq.     687.34  E(vib)   ...       0.07
freq.     723.04  E(vib)   ...       0.07
freq.     750.89  E(vib)   ...       0.06
freq.     767.44  E(vib)   ...       0.06
freq.     773.96  E(vib)   ...       0.05
freq.     783.90  E(vib)   ...       0.05
freq.     808.76  E(vib)   ...       0.05
freq.     820.55  E(vib)   ...       0.05
freq.     826.74  E(vib)   ...       0.04
freq.     845.86  E(vib)   ...       0.04
freq.     861.21  E(vib)   ...       0.04
freq.     870.60  E(vib)   ...       0.04
freq.     875.04  E(vib)   ...       0.04
freq.     909.18  E(vib)   ...       0.03
freq.     930.79  E(vib)   ...       0.03
freq.     963.50  E(vib)   ...       0.03
freq.     969.90  E(vib)   ...       0.03
freq.     977.94  E(vib)   ...       0.03
freq.     993.03  E(vib)   ...       0.02
freq.    1014.82  E(vib)   ...       0.02
freq.    1028.12  E(vib)   ...       0.02
freq.    1060.68  E(vib)   ...       0.02
freq.    1070.91  E(vib)   ...       0.02
freq.    1074.94  E(vib)   ...       0.02
freq.    1084.51  E(vib)   ...       0.02
freq.    1096.57  E(vib)   ...       0.02
freq.    1100.07  E(vib)   ...       0.02
freq.    1137.66  E(vib)   ...       0.01
freq.    1139.25  E(vib)   ...       0.01
freq.    1170.84  E(vib)   ...       0.01
freq.    1171.13  E(vib)   ...       0.01
freq.    1171.41  E(vib)   ...       0.01
freq.    1174.96  E(vib)   ...       0.01
freq.    1195.30  E(vib)   ...       0.01
freq.    1201.73  E(vib)   ...       0.01
freq.    1205.73  E(vib)   ...       0.01
freq.    1208.71  E(vib)   ...       0.01
freq.    1214.80  E(vib)   ...       0.01
freq.    1235.46  E(vib)   ...       0.01
freq.    1261.41  E(vib)   ...       0.01
freq.    1282.31  E(vib)   ...       0.01
freq.    1300.25  E(vib)   ...       0.01
freq.    1307.66  E(vib)   ...       0.01
freq.    1312.15  E(vib)   ...       0.01
freq.    1320.26  E(vib)   ...       0.01
freq.    1329.75  E(vib)   ...       0.01
freq.    1341.30  E(vib)   ...       0.01
freq.    1361.05  E(vib)   ...       0.01
freq.    1370.76  E(vib)   ...       0.01
freq.    1390.07  E(vib)   ...       0.00
freq.    1431.35  E(vib)   ...       0.00
freq.    1464.76  E(vib)   ...       0.00
freq.    1465.91  E(vib)   ...       0.00
freq.    1466.30  E(vib)   ...       0.00
freq.    1469.21  E(vib)   ...       0.00
freq.    1471.16  E(vib)   ...       0.00
freq.    1473.30  E(vib)   ...       0.00
freq.    1474.38  E(vib)   ...       0.00
freq.    1474.43  E(vib)   ...       0.00
freq.    1484.10  E(vib)   ...       0.00
freq.    1486.64  E(vib)   ...       0.00
freq.    1498.77  E(vib)   ...       0.00
freq.    1537.09  E(vib)   ...       0.00
freq.    1561.09  E(vib)   ...       0.00
freq.    1623.47  E(vib)   ...       0.00
freq.    1649.32  E(vib)   ...       0.00
freq.    1663.93  E(vib)   ...       0.00
freq.    1668.35  E(vib)   ...       0.00
freq.    1711.12  E(vib)   ...       0.00
freq.    1790.83  E(vib)   ...       0.00
freq.    3037.91  E(vib)   ...       0.00
freq.    3038.85  E(vib)   ...       0.00
freq.    3075.38  E(vib)   ...       0.00
freq.    3109.53  E(vib)   ...       0.00
freq.    3110.79  E(vib)   ...       0.00
freq.    3124.46  E(vib)   ...       0.00
freq.    3129.00  E(vib)   ...       0.00
freq.    3160.88  E(vib)   ...       0.00
freq.    3166.85  E(vib)   ...       0.00
freq.    3169.08  E(vib)   ...       0.00
freq.    3189.07  E(vib)   ...       0.00
freq.    3194.22  E(vib)   ...       0.00
freq.    3196.80  E(vib)   ...       0.00
freq.    3206.24  E(vib)   ...       0.00
freq.    3211.25  E(vib)   ...       0.00
freq.    3214.42  E(vib)   ...       0.00
freq.    3231.27  E(vib)   ...       0.00
freq.    3234.41  E(vib)   ...       0.00
freq.    3248.22  E(vib)   ...       0.00

------------
INNER ENERGY
------------

The inner energy is: U= E(el) + E(ZPE) + E(vib) + E(rot) + E(trans)
    E(el)   - is the total energy from the electronic structure calculation
              = E(kin-el) + E(nuc-el) + E(el-el) + E(nuc-nuc)
    E(ZPE)  - the the zero temperature vibrational energy from the frequency calculation
    E(vib)  - the the finite temperature correction to E(ZPE) due to population
              of excited vibrational states
    E(rot)  - is the rotational thermal energy
    E(trans)- is the translational thermal energy

Summary of contributions to the inner energy U:

Rotational constants in cm-1:     0.007605     0.005255     0.004008

                             ****ORCA TERMINATED NORMALLY****
TOTAL RUN TIME: 0 days 1 hours 44 minutes 47 seconds 454 msec
