                         Program Version 5.0.4 -  RELEASE  -
|  1> %pal nprocs 24 end
|  2> %maxcore 3500
|  3> ! PBE0 D3BJ def2-TZVP TightSCF OPT FREQ TightOpt
|  4> ! CPCM(dmso)
|  5> %scf
|  6> MaxIter 800
|  7> end
|  8> %geom
|  9> MaxIter 800
| 10> MaxStep 0.2
| 11> end
| 12> *xyz 0 1
| 13> C       -0.976135000      1.396539000     -0.703409000
| 14> C       -1.514460000      1.982246000      0.591569000
| 15> O       -2.239483000      1.344687000      1.312268000
| 16> O       -1.095507000      3.209972000      0.821762000
| 17> C       -1.553304000      3.814247000      2.039464000
| 18> H       -1.815625000      0.989902000     -1.264192000
| 19> H       -2.640661000      3.885342000      2.033618000
| 20> H       -1.105010000      4.803538000      2.060419000
| 21> C        1.323634000      1.176444000     -0.619390000
| 22> C        0.110648000      0.330147000     -0.441585000
| 23> C        0.046584000     -0.842740000     -1.389268000
| 24> C        0.738321000     -0.860329000     -2.589796000
| 25> C        0.655888000     -1.945319000     -3.453348000
| 26> C       -0.131460000     -3.029039000     -3.104005000
| 27> C       -0.836355000     -3.035836000     -1.907662000
| 28> C       -0.755491000     -1.943248000     -1.052103000
| 29> O       -1.417749000     -1.854797000      0.120670000
| 30> C       -2.180774000     -2.969232000      0.544372000
| 31> N        1.037977000      2.288759000     -1.251618000
| 32> O        1.695117000      3.214040000     -1.657908000
| 33> H        0.028179000     -0.032913000      0.582649000
| 34> H        1.359886000     -0.012323000     -2.857852000
| 35> H        1.203743000     -1.939247000     -4.387705000
| 36> H       -0.209130000     -3.883913000     -3.766163000
| 37> H       -1.453209000     -3.886938000     -1.653499000
| 38> H       -2.608254000     -2.691630000      1.505569000
| 39> H       -1.549029000     -3.853886000      0.664658000
| 40> H       -2.984591000     -3.188525000     -0.162642000
| 41> O       -0.346277000      2.372492000     -1.519486000
| 42> H       -1.225461000      3.224533000      2.895092000
| 43> C        2.694117000      0.854539000     -0.233094000
| 44> O        3.666724000      1.545393000     -0.421294000
| 45> O        2.715408000     -0.332013000      0.370256000
| 46> C        3.999010000     -0.788085000      0.804635000
| 47> H        4.675829000     -0.875800000     -0.045422000
| 48> H        4.417407000     -0.097186000      1.536971000
| 49> H        3.825438000     -1.761305000      1.255678000
| 50> *
| 51>
| 52>                          ****END OF INPUT****
 Total Charge           Charge          ....    0
 Multiplicity           Mult            ....    1
 Number of Electrons    NEL             ....  162
Dispersion correction           -0.040079663
FINAL SINGLE POINT ENERGY     -1122.984279401585
Dispersion correction            ... done
Dispersion correction           -0.040092742
FINAL SINGLE POINT ENERGY     -1122.984311148191
Dispersion correction            ... done
Dispersion correction           -0.040094171
FINAL SINGLE POINT ENERGY     -1122.984316092063
Dispersion correction            ... done
FINAL SINGLE POINT ENERGY     -1122.984323511463
FINAL SINGLE POINT ENERGY     -1122.984325198895
FINAL SINGLE POINT ENERGY     -1122.984322795096
Dispersion correction           -0.040101413
FINAL SINGLE POINT ENERGY     -1122.984323938126
Dispersion correction            ... done
Dispersion correction           -0.040100891
FINAL SINGLE POINT ENERGY     -1122.984323436446
Dispersion correction            ... done
                    ***********************HURRAY********************

CARTESIAN COORDINATES (ANGSTROEM)
---------------------------------
  C     -0.980546    1.377925   -0.696575
  C     -1.510807    1.968158    0.600797
  O     -2.222616    1.330137    1.333786
  O     -1.097756    3.200349    0.818693
  C     -1.542163    3.807204    2.040073
  H     -1.821776    0.964226   -1.251726
  H     -2.629924    3.871648    2.049692
  H     -1.099470    4.799161    2.050534
  C      1.321835    1.177445   -0.617482
  C      0.116495    0.321336   -0.434139
  C      0.058171   -0.853442   -1.379705
  C      0.749080   -0.869998   -2.580538
  C      0.662503   -1.952023   -3.447612
  C     -0.128486   -3.034281   -3.101702
  C     -0.831943   -3.043138   -1.903557
  C     -0.744714   -1.953934   -1.043358
  O     -1.401239   -1.868189    0.132220
  C     -2.222074   -2.953092    0.523449
  N      1.024788    2.285204   -1.252662
  O      1.672928    3.215473   -1.661983
  H      0.039883   -0.039347    0.591376
  H      1.371679   -0.022408   -2.847529
  H      1.210748   -1.945136   -4.381736
  H     -0.205972   -3.888409   -3.764896
  H     -1.445509   -3.896575   -1.648121
  H     -2.650843   -2.673187    1.483358
  H     -1.635825   -3.869286    0.637276
  H     -3.024033   -3.121019   -0.200742
  O     -0.360127    2.354757   -1.519738
  H     -1.198542    3.223180    2.893445
  C      2.696205    0.867238   -0.235417
  O      3.663144    1.564043   -0.430694
  O      2.728403   -0.317041    0.371914
  C      4.017224   -0.763803    0.800559
  H      4.689667   -0.850170   -0.053090
  H      4.435521   -0.067967    1.528250
  H      3.852037   -1.736523    1.255787

 Multiplicity           Mult            ....    1
 Number of Electrons    NEL             ....  162
 Basis Dimension        Dim             ....  772

ORBITAL ENERGIES
----------------

  NO   OCC          E(Eh)            E(eV)
   0   2.0000     -19.296221      -525.0769
   1   2.0000     -19.273849      -524.4681
   2   2.0000     -19.268247      -524.3157
   3   2.0000     -19.247967      -523.7638
   4   2.0000     -19.247445      -523.7496
   5   2.0000     -19.211181      -522.7628
   6   2.0000     -19.206974      -522.6483
   7   2.0000     -14.615751      -397.7148
   8   2.0000     -10.372540      -282.2512
   9   2.0000     -10.367724      -282.1201
  10   2.0000     -10.318633      -280.7843
  11   2.0000     -10.297234      -280.2020
  12   2.0000     -10.293854      -280.1100
  13   2.0000     -10.275057      -279.5985
  14   2.0000     -10.274522      -279.5840
  15   2.0000     -10.272714      -279.5347
  16   2.0000     -10.267573      -279.3949
  17   2.0000     -10.244254      -278.7603
  18   2.0000     -10.233637      -278.4714
  19   2.0000     -10.231490      -278.4130
  20   2.0000     -10.227859      -278.3142
  21   2.0000     -10.223397      -278.1928
  22   2.0000      -1.262317       -34.3494
  23   2.0000      -1.164494       -31.6875
  24   2.0000      -1.157449       -31.4958
  25   2.0000      -1.120108       -30.4797
  26   2.0000      -1.110835       -30.2274
  27   2.0000      -1.070206       -29.1218
  28   2.0000      -1.065065       -28.9819
  29   2.0000      -0.931478       -25.3468
  30   2.0000      -0.893821       -24.3221
  31   2.0000      -0.848451       -23.0875
  32   2.0000      -0.795786       -21.6544
  33   2.0000      -0.781607       -21.2686
  34   2.0000      -0.778407       -21.1815
  35   2.0000      -0.758403       -20.6372
  36   2.0000      -0.724375       -19.7112
  37   2.0000      -0.707166       -19.2430
  38   2.0000      -0.677123       -18.4255
  39   2.0000      -0.634966       -17.2783
  40   2.0000      -0.629369       -17.1260
  41   2.0000      -0.614831       -16.7304
  42   2.0000      -0.595743       -16.2110
  43   2.0000      -0.581095       -15.8124
  44   2.0000      -0.577374       -15.7111
  45   2.0000      -0.558403       -15.1949
  46   2.0000      -0.551236       -14.9999
  47   2.0000      -0.527325       -14.3492
  48   2.0000      -0.524863       -14.2823
  49   2.0000      -0.519819       -14.1450
  50   2.0000      -0.512886       -13.9563
  51   2.0000      -0.509817       -13.8728
  52   2.0000      -0.508307       -13.8317
  53   2.0000      -0.501176       -13.6377
  54   2.0000      -0.490008       -13.3338
  55   2.0000      -0.479892       -13.0585
  56   2.0000      -0.467382       -12.7181
  57   2.0000      -0.461984       -12.5712
  58   2.0000      -0.451807       -12.2943
  59   2.0000      -0.446324       -12.1451
  60   2.0000      -0.438133       -11.9222
  61   2.0000      -0.433424       -11.7941
  62   2.0000      -0.422676       -11.5016
  63   2.0000      -0.418313       -11.3829
  64   2.0000      -0.408908       -11.1269
  65   2.0000      -0.392434       -10.6787
  66   2.0000      -0.387607       -10.5473
  67   2.0000      -0.385014       -10.4768
  68   2.0000      -0.383611       -10.4386
  69   2.0000      -0.371781       -10.1167
  70   2.0000      -0.370545       -10.0830
  71   2.0000      -0.347766        -9.4632
  72   2.0000      -0.345341        -9.3972
  73   2.0000      -0.339990        -9.2516
  74   2.0000      -0.336017        -9.1435
  75   2.0000      -0.334299        -9.0967
  76   2.0000      -0.311910        -8.4875
  77   2.0000      -0.309589        -8.4244
  78   2.0000      -0.275797        -7.5048
  79   2.0000      -0.270406        -7.3581
  80   2.0000      -0.242837        -6.6079
  81   0.0000      -0.073291        -1.9944
  82   0.0000      -0.020703        -0.5633
  83   0.0000      -0.006058        -0.1648
  84   0.0000       0.001828         0.0497
  85   0.0000       0.043066         1.1719

MULLIKEN ATOMIC CHARGES
-----------------------
   0 C :    0.125727
   1 C :    0.264369
   2 O :   -0.387004
   3 O :   -0.214248
   4 C :   -0.261753
   5 H :    0.184257
   6 H :    0.158885
   7 H :    0.166625
   8 C :   -0.118484
   9 C :    0.144022
  10 C :   -0.067952
  11 C :   -0.162492
  12 C :   -0.210066
  13 C :   -0.146355
  14 C :   -0.293780
  15 C :    0.217073
  16 O :   -0.255506
  17 C :   -0.282011
  18 N :    0.445270
  19 O :   -0.380498
  20 H :    0.140181
  21 H :    0.169058
  22 H :    0.148690
  23 H :    0.153727
  24 H :    0.167010
  25 H :    0.162385
  26 H :    0.151781
  27 H :    0.151788
  28 O :   -0.213800
  29 H :    0.159092
  30 C :    0.273249
  31 O :   -0.383103
  32 O :   -0.215499
  33 C :   -0.268087
  34 H :    0.156906
  35 H :    0.156789
  36 H :    0.163752
Sum of atomic charges:   -0.0000000

LOEWDIN ATOMIC CHARGES
----------------------
   0 C :   -0.224283
   1 C :   -0.485413
   2 O :    0.091999
   3 O :    0.275281
   4 C :   -0.291019
   5 H :    0.183210
   6 H :    0.121758
   7 H :    0.124241
   8 C :   -0.168611
   9 C :   -0.149325
  10 C :   -0.107912
  11 C :   -0.108006
  12 C :   -0.163074
  13 C :   -0.142787
  14 C :   -0.138133
  15 C :   -0.230254
  16 O :    0.250058
  17 C :   -0.323627
  18 N :    0.088422
  19 O :   -0.047959
  20 H :    0.188655
  21 H :    0.164230
  22 H :    0.152816
  23 H :    0.155276
  24 H :    0.160862
  25 H :    0.122073
  26 H :    0.117794
  27 H :    0.117903
  28 O :    0.203989
  29 H :    0.121598
  30 C :   -0.486366
  31 O :    0.086397
  32 O :    0.274229
  33 C :   -0.299465
  34 H :    0.120809
  35 H :    0.120843
  36 H :    0.123789

  Mayer bond orders larger than 0.100000
B(  0-C ,  1-C ) :   0.9522 B(  0-C ,  5-H ) :   0.9161 B(  0-C ,  9-C ) :   0.9176
B(  0-C , 28-O ) :   0.9600 B(  1-C ,  2-O ) :   1.9722 B(  1-C ,  3-O ) :   1.2784
B(  3-O ,  4-C ) :   0.8850 B(  4-C ,  6-H ) :   0.9660 B(  4-C ,  7-H ) :   0.9614
B(  4-C , 29-H ) :   0.9662 B(  8-C ,  9-C ) :   0.9281 B(  8-C , 18-N ) :   1.5467
B(  8-C , 19-O ) :   0.2008 B(  8-C , 30-C ) :   1.0424 B(  9-C , 10-C ) :   0.8758
B(  9-C , 20-H ) :   0.9532 B( 10-C , 11-C ) :   1.3636 B( 10-C , 15-C ) :   1.3192
B( 11-C , 12-C ) :   1.4030 B( 11-C , 21-H ) :   0.9703 B( 12-C , 13-C ) :   1.4153
B( 12-C , 22-H ) :   0.9796 B( 13-C , 14-C ) :   1.3887 B( 13-C , 23-H ) :   0.9642
B( 14-C , 15-C ) :   1.3779 B( 14-C , 24-H ) :   0.9581 B( 15-C , 16-O ) :   1.1394
B( 16-O , 17-C ) :   0.9359 B( 17-C , 25-H ) :   0.9646 B( 17-C , 26-H ) :   0.9621
B( 17-C , 27-H ) :   0.9614 B( 18-N , 19-O ) :   1.5800 B( 18-N , 28-O ) :   0.8780
B( 30-C , 31-O ) :   2.0040 B( 30-C , 32-O ) :   1.2567 B( 32-O , 33-C ) :   0.8944
B( 33-C , 34-H ) :   0.9671 B( 33-C , 35-H ) :   0.9665 B( 33-C , 36-H ) :   0.9633

Dispersion correction           -0.040099860
FINAL SINGLE POINT ENERGY     -1122.984322358174

DIPOLE MOMENT
-------------
                                X             Y             Z
Electronic contribution:      2.53449      10.91386      -5.18129
Nuclear contribution   :     -3.81159     -13.26973       6.32587
                        -----------------------------------------
Total Dipole Moment    :     -1.27710      -2.35586       1.14458
                        -----------------------------------------
Magnitude (a.u.)       :      2.91395
Magnitude (Debye)      :      7.40668

Dispersion correction in the Hessian             ... done   (      0.5 sec)

VIBRATIONAL FREQUENCIES
-----------------------

Scaling factor for frequencies =  1.000000000  (already applied!)

   0:         0.00 cm**-1
   1:         0.00 cm**-1
   2:         0.00 cm**-1
   3:         0.00 cm**-1
   4:         0.00 cm**-1
   5:         0.00 cm**-1
   6:        18.14 cm**-1
   7:        24.49 cm**-1
   8:        35.00 cm**-1
   9:        49.62 cm**-1
  10:        52.72 cm**-1
  11:        73.33 cm**-1
  12:        99.67 cm**-1
  13:       102.92 cm**-1
  14:       116.09 cm**-1
  15:       132.69 cm**-1
  16:       145.26 cm**-1
  17:       150.71 cm**-1
  18:       158.98 cm**-1
  19:       173.58 cm**-1
  20:       195.72 cm**-1
  21:       223.11 cm**-1
  22:       243.40 cm**-1
  23:       253.19 cm**-1
  24:       294.73 cm**-1
  25:       306.12 cm**-1
  26:       313.54 cm**-1
  27:       337.15 cm**-1
  28:       363.33 cm**-1
  29:       374.20 cm**-1
  30:       427.30 cm**-1
  31:       461.20 cm**-1
  32:       480.32 cm**-1
  33:       501.77 cm**-1
  34:       561.85 cm**-1
  35:       575.83 cm**-1
  36:       596.83 cm**-1
  37:       617.23 cm**-1
  38:       684.55 cm**-1
  39:       702.14 cm**-1
  40:       732.27 cm**-1
  41:       759.44 cm**-1
  42:       771.03 cm**-1
  43:       777.69 cm**-1
  44:       786.83 cm**-1
  45:       792.95 cm**-1
  46:       819.17 cm**-1
  47:       851.62 cm**-1
  48:       874.08 cm**-1
  49:       889.57 cm**-1
  50:       910.10 cm**-1
  51:       924.84 cm**-1
  52:       965.04 cm**-1
  53:       993.24 cm**-1
  54:      1013.70 cm**-1
  55:      1039.14 cm**-1
  56:      1061.45 cm**-1
  57:      1071.22 cm**-1
  58:      1084.46 cm**-1
  59:      1093.18 cm**-1
  60:      1139.64 cm**-1
  61:      1170.65 cm**-1
  62:      1170.95 cm**-1
  63:      1171.79 cm**-1
  64:      1175.60 cm**-1
  65:      1179.28 cm**-1
  66:      1198.09 cm**-1
  67:      1208.89 cm**-1
  68:      1214.11 cm**-1
  69:      1221.59 cm**-1
  70:      1241.62 cm**-1
  71:      1266.85 cm**-1
  72:      1295.73 cm**-1
  73:      1306.29 cm**-1
  74:      1319.98 cm**-1
  75:      1322.58 cm**-1
  76:      1354.27 cm**-1
  77:      1359.20 cm**-1
  78:      1391.25 cm**-1
  79:      1435.74 cm**-1
  80:      1464.42 cm**-1
  81:      1465.31 cm**-1
  82:      1466.55 cm**-1
  83:      1469.59 cm**-1
  84:      1470.40 cm**-1
  85:      1472.45 cm**-1
  86:      1473.79 cm**-1
  87:      1476.88 cm**-1
  88:      1483.56 cm**-1
  89:      1498.89 cm**-1
  90:      1537.05 cm**-1
  91:      1649.11 cm**-1
  92:      1663.61 cm**-1
  93:      1680.96 cm**-1
  94:      1788.66 cm**-1
  95:      1797.36 cm**-1
  96:      3038.00 cm**-1
  97:      3071.69 cm**-1
  98:      3077.16 cm**-1
  99:      3110.03 cm**-1
 100:      3127.08 cm**-1
 101:      3143.56 cm**-1
 102:      3154.57 cm**-1
 103:      3163.15 cm**-1
 104:      3167.57 cm**-1
 105:      3187.06 cm**-1
 106:      3191.45 cm**-1
 107:      3196.83 cm**-1
 108:      3197.13 cm**-1
 109:      3215.70 cm**-1
 110:      3230.80 cm**-1

IR SPECTRUM
-----------

 Mode   freq       eps      Int      T**2         TX        TY        TZ
       cm**-1   L/(mol*cm) km/mol    a.u.
----------------------------------------------------------------------------
  6:     18.14   0.000232    1.17  0.003988  (-0.054433  0.013064 -0.029223)
  7:     24.49   0.000688    3.48  0.008765  ( 0.065083 -0.041763  0.052773)
  8:     35.00   0.000199    1.01  0.001777  (-0.032547  0.000547 -0.026782)
  9:     49.62   0.000884    4.47  0.005559  (-0.036032  0.036926  0.053826)
 10:     52.72   0.000215    1.08  0.001271  ( 0.000305  0.004811  0.035321)
 11:     73.33   0.000198    1.00  0.000843  (-0.028010 -0.003458  0.006829)
 12:     99.67   0.000908    4.59  0.002842  ( 0.045917 -0.024873  0.010729)
 13:    102.92   0.000739    3.74  0.002242  (-0.009600  0.001951 -0.046322)
 14:    116.09   0.000076    0.38  0.000204  (-0.000146 -0.014107 -0.002205)
 15:    132.69   0.000049    0.25  0.000115  ( 0.006733  0.001956 -0.008101)
 16:    145.26   0.000206    1.04  0.000443  ( 0.006917  0.005155  0.019210)
 17:    150.71   0.000146    0.74  0.000302  (-0.013260  0.010066 -0.004966)
 18:    158.98   0.000122    0.62  0.000240  ( 0.014041 -0.003470  0.005552)
 19:    173.58   0.001049    5.30  0.001886  ( 0.022711  0.008833  0.035942)
 20:    195.72   0.000222    1.12  0.000353  ( 0.011718 -0.012595  0.007578)
 21:    223.11   0.001925    9.73  0.002692  ( 0.039963 -0.032037  0.008280)
 22:    243.40   0.001841    9.30  0.002361  (-0.008028  0.042106 -0.022875)
 23:    253.19   0.001051    5.31  0.001295  (-0.025751  0.020035 -0.015191)
 24:    294.73   0.001280    6.47  0.001356  (-0.010092 -0.023684  0.026322)
 25:    306.12   0.000813    4.11  0.000828  (-0.025444 -0.013450 -0.000164)
 26:    313.54   0.001402    7.08  0.001395  ( 0.007758 -0.030429  0.020222)
 27:    337.15   0.005963   30.13  0.005519  ( 0.006536  0.059578  0.043898)
 28:    363.33   0.001423    7.19  0.001222  ( 0.011686 -0.015706 -0.028960)
 29:    374.20   0.003845   19.43  0.003207  (-0.033972  0.043668  0.012081)
 30:    427.30   0.000540    2.73  0.000394  (-0.000033 -0.000824  0.019844)
 31:    461.20   0.001734    8.76  0.001173  ( 0.031982 -0.009791  0.007397)
 32:    480.32   0.001713    8.66  0.001113  (-0.023042  0.017566 -0.016534)
 33:    501.77   0.002943   14.87  0.001830  ( 0.027500  0.015612  0.028815)
 34:    561.85   0.001059    5.35  0.000588  (-0.023140 -0.003936 -0.006106)
 35:    575.83   0.004061   20.52  0.002201  ( 0.024986  0.016982  0.035891)
 36:    596.83   0.005358   27.08  0.002802  ( 0.050777  0.014152  0.004809)
 37:    617.23   0.001409    7.12  0.000712  (-0.019610  0.018012 -0.001871)
 38:    684.55   0.002267   11.46  0.001033  ( 0.023985 -0.016067 -0.014144)
 39:    702.14   0.000932    4.71  0.000414  ( 0.010412 -0.010755 -0.013794)
 40:    732.27   0.000865    4.37  0.000369  ( 0.004532  0.016684 -0.008346)
 41:    759.44   0.001969    9.95  0.000809  (-0.008018 -0.026022  0.008237)
 42:    771.03   0.029915  151.18  0.012108  (-0.085678  0.039811 -0.056410)
 43:    777.69   0.012368   62.50  0.004963  (-0.063526 -0.029287  0.008331)
 44:    786.83   0.012315   62.23  0.004884  ( 0.061965 -0.002593  0.032215)
 45:    792.95   0.022455  113.48  0.008837  ( 0.074195 -0.038020 -0.043434)
 46:    819.17   0.002287   11.56  0.000871  ( 0.010763 -0.014335 -0.023448)
 47:    851.62   0.012209   61.70  0.004474  (-0.066087  0.010209 -0.001507)
 48:    874.08   0.001739    8.79  0.000621  ( 0.024719  0.001582 -0.002724)
 49:    889.57   0.011314   57.18  0.003969  ( 0.060671  0.006265 -0.015771)
 50:    910.10   0.016964   85.73  0.005817  (-0.059035  0.048011 -0.005150)
 51:    924.84   0.002971   15.01  0.001002  (-0.000411 -0.002750 -0.031539)
 52:    965.04   0.000466    2.35  0.000151  (-0.012052  0.001894 -0.001334)
 53:    993.24   0.000019    0.10  0.000006  (-0.001607 -0.001691  0.000753)
 54:   1013.70   0.006353   32.10  0.001956  (-0.041274 -0.013202  0.008818)
 55:   1039.14   0.032593  164.71  0.009788  ( 0.096702 -0.010845 -0.017863)
 56:   1061.45   0.014084   71.17  0.004141  (-0.002509 -0.031809 -0.055880)
 57:   1071.22   0.013338   67.40  0.003886  ( 0.032253  0.051865 -0.012463)
 58:   1084.46   0.007566   38.24  0.002177  (-0.016188 -0.009617  0.042693)
 59:   1093.18   0.010707   54.11  0.003056  ( 0.010876 -0.040303  0.036247)
 60:   1139.64   0.013982   70.66  0.003829  ( 0.026784  0.044517 -0.033607)
 61:   1170.65   0.000128    0.64  0.000034  ( 0.000881 -0.004446 -0.003667)
 62:   1170.95   0.000299    1.51  0.000080  (-0.002513  0.004101 -0.007526)
 63:   1171.79   0.000154    0.78  0.000041  (-0.005436  0.002599 -0.002193)
 64:   1175.60   0.001397    7.06  0.000371  ( 0.013225  0.013855 -0.002008)
 65:   1179.28   0.003920   19.81  0.001037  (-0.005852 -0.005157  0.031249)
 66:   1198.09   0.002040   10.31  0.000531  (-0.000225  0.020039 -0.011394)
 67:   1208.89   0.001012    5.12  0.000261  (-0.016000  0.002273 -0.000326)
 68:   1214.11   0.001624    8.21  0.000417  (-0.015493 -0.005973  0.011906)
 69:   1221.59   0.003037   15.35  0.000776  ( 0.004673  0.000102 -0.027457)
 70:   1241.62   0.059642  301.41  0.014990  (-0.073113  0.088950 -0.041625)
 71:   1266.85   0.106833  539.89  0.026316  (-0.067997  0.135594 -0.057504)
 72:   1295.73   0.085760  433.39  0.020654  ( 0.050089  0.088503 -0.101551)
 73:   1306.29   0.017752   89.71  0.004241  (-0.054226 -0.003979  0.035841)
 74:   1319.98   0.059878  302.60  0.014156  (-0.015909  0.083907  0.082841)
 75:   1322.58   0.045764  231.27  0.010798  (-0.004485  0.101561  0.021524)
 76:   1354.27   0.002164   10.94  0.000499  (-0.011512  0.001742 -0.019056)
 77:   1359.20   0.024685  124.75  0.005668  ( 0.041221  0.060017  0.019138)
 78:   1391.25   0.011663   58.94  0.002616  ( 0.038955  0.015284 -0.029412)
 79:   1435.74   0.024385  123.23  0.005300  (-0.060286  0.023211 -0.033571)
 80:   1464.42   0.003230   16.32  0.000688  ( 0.005610 -0.017313 -0.018897)
 81:   1465.31   0.006180   31.23  0.001316  (-0.007452 -0.008028  0.034585)
 82:   1466.55   0.003600   18.19  0.000766  (-0.023456  0.010238 -0.010538)
 83:   1469.59   0.016366   82.71  0.003475  ( 0.022689 -0.051969 -0.016117)
 84:   1470.40   0.015632   79.00  0.003318  (-0.031593  0.024409 -0.041517)
 85:   1472.45   0.002525   12.76  0.000535  (-0.010898 -0.019264  0.006731)
 86:   1473.79   0.003127   15.80  0.000662  ( 0.020843 -0.010503  0.010831)
 87:   1476.88   0.020838  105.31  0.004403  (-0.061013  0.016232 -0.020423)
 88:   1483.56   0.005055   25.55  0.001063  ( 0.011213  0.000074 -0.030620)
 89:   1498.89   0.013898   70.24  0.002894  ( 0.035585  0.011081 -0.038788)
 90:   1537.05   0.037165  187.82  0.007546  (-0.048088 -0.008332  0.071859)
 91:   1649.11   0.011609   58.67  0.002197  ( 0.015504  0.039463 -0.019980)
 92:   1663.61   0.021623  109.27  0.004056  (-0.017526 -0.022579  0.056912)
 93:   1680.96   0.121775  615.40  0.022607  (-0.057538  0.127547 -0.055031)
 94:   1788.66   0.242511  1225.55  0.042310  ( 0.122372  0.155790 -0.055362)
 95:   1797.36   0.038424  194.18  0.006671  ( 0.053143  0.044466 -0.043242)
 96:   3038.00   0.012045   60.87  0.001237  ( 0.020338  0.025881 -0.012402)
 97:   3071.69   0.005636   28.48  0.000573  (-0.020412  0.008869 -0.008792)
 98:   3077.16   0.004870   24.61  0.000494  (-0.006225  0.012115  0.017560)
 99:   3110.03   0.007080   35.78  0.000710  (-0.021314  0.010616 -0.011977)
100:   3127.08   0.000525    2.65  0.000052  (-0.002089 -0.006812  0.001284)
101:   3143.56   0.000377    1.90  0.000037  (-0.002373 -0.001869  0.005316)
102:   3154.57   0.003407   17.22  0.000337  ( 0.002808 -0.008571 -0.015989)
103:   3163.15   0.002985   15.09  0.000294  (-0.013718  0.006338 -0.008132)
104:   3167.57   0.003666   18.53  0.000361  (-0.006838  0.005322  0.016914)
105:   3187.06   0.000622    3.14  0.000061  (-0.003770 -0.006803  0.000629)
106:   3191.45   0.002058   10.40  0.000201  (-0.003200 -0.012343  0.006214)
107:   3196.83   0.001687    8.52  0.000165  ( 0.005495  0.011524 -0.001287)
108:   3197.13   0.001500    7.58  0.000146  ( 0.003079  0.010671  0.004798)
109:   3215.70   0.002682   13.56  0.000260  ( 0.006990 -0.002952 -0.014238)
110:   3230.80   0.000354    1.79  0.000034  ( 0.002958  0.004963 -0.000908)

--------------------------
THERMOCHEMISTRY AT 298.15K
--------------------------

Temperature         ... 298.15 K
Pressure            ... 1.00 atm
Total Mass          ... 309.27 AMU

Throughout the following assumptions are being made:
  (1) The electronic state is orbitally nondegenerate
  (2) There are no thermally accessible electronically excited states
  (3) Hindered rotations indicated by low frequency modes are not
      treated as such but are treated as vibrations and this may
      cause some error
  (4) All equations used are the standard statistical mechanics
      equations for an ideal gas
  (5) All vibrations are strictly harmonic

freq.      18.14  E(vib)   ...       0.57
freq.      24.49  E(vib)   ...       0.56
freq.      35.00  E(vib)   ...       0.54
freq.      49.62  E(vib)   ...       0.52
freq.      52.72  E(vib)   ...       0.52
freq.      73.33  E(vib)   ...       0.49
freq.      99.67  E(vib)   ...       0.46
freq.     102.92  E(vib)   ...       0.46
freq.     116.09  E(vib)   ...       0.44
freq.     132.69  E(vib)   ...       0.42
freq.     145.26  E(vib)   ...       0.41
freq.     150.71  E(vib)   ...       0.40
freq.     158.98  E(vib)   ...       0.39
freq.     173.58  E(vib)   ...       0.38
freq.     195.72  E(vib)   ...       0.36
freq.     223.11  E(vib)   ...       0.33
freq.     243.40  E(vib)   ...       0.31
freq.     253.19  E(vib)   ...       0.30
freq.     294.73  E(vib)   ...       0.27
freq.     306.12  E(vib)   ...       0.26
freq.     313.54  E(vib)   ...       0.25
freq.     337.15  E(vib)   ...       0.24
freq.     363.33  E(vib)   ...       0.22
freq.     374.20  E(vib)   ...       0.21
freq.     427.30  E(vib)   ...       0.18
freq.     461.20  E(vib)   ...       0.16
freq.     480.32  E(vib)   ...       0.15
freq.     501.77  E(vib)   ...       0.14
freq.     561.85  E(vib)   ...       0.11
freq.     575.83  E(vib)   ...       0.11
freq.     596.83  E(vib)   ...       0.10
freq.     617.23  E(vib)   ...       0.09
freq.     684.55  E(vib)   ...       0.07
freq.     702.14  E(vib)   ...       0.07
freq.     732.27  E(vib)   ...       0.06
freq.     759.44  E(vib)   ...       0.06
freq.     771.03  E(vib)   ...       0.05
freq.     777.69  E(vib)   ...       0.05
freq.     786.83  E(vib)   ...       0.05
freq.     792.95  E(vib)   ...       0.05
freq.     819.17  E(vib)   ...       0.05
freq.     851.62  E(vib)   ...       0.04
freq.     874.08  E(vib)   ...       0.04
freq.     889.57  E(vib)   ...       0.04
freq.     910.10  E(vib)   ...       0.03
freq.     924.84  E(vib)   ...       0.03
freq.     965.04  E(vib)   ...       0.03
freq.     993.24  E(vib)   ...       0.02
freq.    1013.70  E(vib)   ...       0.02
freq.    1039.14  E(vib)   ...       0.02
freq.    1061.45  E(vib)   ...       0.02
freq.    1071.22  E(vib)   ...       0.02
freq.    1084.46  E(vib)   ...       0.02
freq.    1093.18  E(vib)   ...       0.02
freq.    1139.64  E(vib)   ...       0.01
freq.    1170.65  E(vib)   ...       0.01
freq.    1170.95  E(vib)   ...       0.01
freq.    1171.79  E(vib)   ...       0.01
freq.    1175.60  E(vib)   ...       0.01
freq.    1179.28  E(vib)   ...       0.01
freq.    1198.09  E(vib)   ...       0.01
freq.    1208.89  E(vib)   ...       0.01
freq.    1214.11  E(vib)   ...       0.01
freq.    1221.59  E(vib)   ...       0.01
freq.    1241.62  E(vib)   ...       0.01
freq.    1266.85  E(vib)   ...       0.01
freq.    1295.73  E(vib)   ...       0.01
freq.    1306.29  E(vib)   ...       0.01
freq.    1319.98  E(vib)   ...       0.01
freq.    1322.58  E(vib)   ...       0.01
freq.    1354.27  E(vib)   ...       0.01
freq.    1359.20  E(vib)   ...       0.01
freq.    1391.25  E(vib)   ...       0.00
freq.    1435.74  E(vib)   ...       0.00
freq.    1464.42  E(vib)   ...       0.00
freq.    1465.31  E(vib)   ...       0.00
freq.    1466.55  E(vib)   ...       0.00
freq.    1469.59  E(vib)   ...       0.00
freq.    1470.40  E(vib)   ...       0.00
freq.    1472.45  E(vib)   ...       0.00
freq.    1473.79  E(vib)   ...       0.00
freq.    1476.88  E(vib)   ...       0.00
freq.    1483.56  E(vib)   ...       0.00
freq.    1498.89  E(vib)   ...       0.00
freq.    1537.05  E(vib)   ...       0.00
freq.    1649.11  E(vib)   ...       0.00
freq.    1663.61  E(vib)   ...       0.00
freq.    1680.96  E(vib)   ...       0.00
freq.    1788.66  E(vib)   ...       0.00
freq.    1797.36  E(vib)   ...       0.00
freq.    3038.00  E(vib)   ...       0.00
freq.    3071.69  E(vib)   ...       0.00
freq.    3077.16  E(vib)   ...       0.00
freq.    3110.03  E(vib)   ...       0.00
freq.    3127.08  E(vib)   ...       0.00
freq.    3143.56  E(vib)   ...       0.00
freq.    3154.57  E(vib)   ...       0.00
freq.    3163.15  E(vib)   ...       0.00
freq.    3167.57  E(vib)   ...       0.00
freq.    3187.06  E(vib)   ...       0.00
freq.    3191.45  E(vib)   ...       0.00
freq.    3196.83  E(vib)   ...       0.00
freq.    3197.13  E(vib)   ...       0.00
freq.    3215.70  E(vib)   ...       0.00
freq.    3230.80  E(vib)   ...       0.00

------------
INNER ENERGY
------------

The inner energy is: U= E(el) + E(ZPE) + E(vib) + E(rot) + E(trans)
    E(el)   - is the total energy from the electronic structure calculation
              = E(kin-el) + E(nuc-el) + E(el-el) + E(nuc-nuc)
    E(ZPE)  - the the zero temperature vibrational energy from the frequency calculation
    E(vib)  - the the finite temperature correction to E(ZPE) due to population
              of excited vibrational states
    E(rot)  - is the rotational thermal energy
    E(trans)- is the translational thermal energy

Summary of contributions to the inner energy U:
Electronic energy                ...  -1122.98432236 Eh
Zero point energy                ...      0.28552778 Eh     179.17 kcal/mol
Thermal vibrational correction   ...      0.01823645 Eh      11.44 kcal/mol
Thermal rotational correction    ...      0.00141627 Eh       0.89 kcal/mol
Thermal translational correction ...      0.00141627 Eh       0.89 kcal/mol
-----------------------------------------------------------------------
Total thermal energy                  -1122.67772559 Eh

Summary of corrections to the electronic energy:
(perhaps to be used in another calculation)
Total thermal correction                  0.02106899 Eh      13.22 kcal/mol
Non-thermal (ZPE) correction              0.28552778 Eh     179.17 kcal/mol
-----------------------------------------------------------------------
Total correction                          0.30659677 Eh     192.39 kcal/mol

--------
ENTHALPY
--------

The enthalpy is H = U + kB*T
                kB is Boltzmann's constant
Total free energy                 ...  -1122.67772559 Eh

Rotational constants in cm-1:     0.011014     0.008464     0.006356

                             ****ORCA TERMINATED NORMALLY****
TOTAL RUN TIME: 0 days 0 hours 40 minutes 31 seconds 976 msec
