                         Program Version 5.0.4 -  RELEASE  -
|  1> %pal nprocs 24 end
|  2> %maxcore 3500
|  3> ! PBE0 D3BJ def2-TZVP TightSCF OPT FREQ TightOpt
|  4> ! CPCM(dmso)
|  5> %scf
|  6> MaxIter 800
|  7> end
|  8> %geom
|  9> MaxIter 800
| 10> MaxStep 0.2
| 11> end
| 12> *xyz 0 1
| 13> C       -0.501268000      1.759819000     -0.127623000
| 14> C       -0.205105000      2.868547000      0.867504000
| 15> O        0.425121000      3.862376000      0.615437000
| 16> O       -0.724310000      2.573262000      2.046404000
| 17> C       -0.480337000      3.512187000      3.101138000
| 18> H       -1.561098000      1.490969000     -0.094423000
| 19> H        0.591387000      3.615485000      3.270187000
| 20> H       -0.967539000      3.098250000      3.979607000
| 21> C        1.530944000      0.918867000     -0.841754000
| 22> C        0.425650000      0.543036000      0.085316000
| 23> C       -0.216407000     -0.782451000     -0.247475000
| 24> C       -0.136686000     -1.345042000     -1.511210000
| 25> C       -0.742340000     -2.561239000     -1.799266000
| 26> C       -1.435208000     -3.224161000     -0.801146000
| 27> C       -1.531993000     -2.681962000      0.473492000
| 28> C       -0.930520000     -1.460072000      0.751412000
| 29> O       -0.989566000     -0.848808000      1.953471000
| 30> C       -1.662181000     -1.511741000      3.007558000
| 31> N        1.127823000      1.839498000     -1.687853000
| 32> O        1.664403000      2.382490000     -2.634265000
| 33> H        0.771493000      0.522380000      1.120099000
| 34> H        0.414502000     -0.825671000     -2.287923000
| 35> H       -0.669428000     -2.983137000     -2.794303000
| 36> H       -1.914958000     -4.174240000     -1.007791000
| 37> H       -2.084328000     -3.209235000      1.239313000
| 38> H       -2.713994000     -1.678441000      2.760419000
| 39> H       -1.591786000     -0.852461000      3.870187000
| 40> H       -1.185990000     -2.469275000      3.237056000
| 41> O       -0.201869000      2.221570000     -1.437500000
| 42> H       -0.909150000      4.481178000      2.846413000
| 43> C        2.846947000      0.390004000     -0.919359000
| 44> H        3.503061000      0.805525000     -1.677721000
| 45> C        3.298958000     -0.582260000     -0.113352000
| 46> H        2.677556000     -1.032914000      0.650984000
| 47> C        4.669946000     -1.081954000     -0.248862000
| 48> O        5.496295000     -0.677658000     -1.038015000
| 49> O        4.905881000     -2.063786000      0.624730000
| 50> C        6.215155000     -2.632164000      0.591745000
| 51> H        6.964913000     -1.873587000      0.819401000
| 52> H        6.219574000     -3.408112000      1.353060000
| 53> H        6.419270000     -3.061906000     -0.389515000
| 54> *
| 55>
| 56>                          ****END OF INPUT****
 Total Charge           Charge          ....    0
 Multiplicity           Mult            ....    1
 Number of Electrons    NEL             ....  176
Dispersion correction           -0.044538280
FINAL SINGLE POINT ENERGY     -1200.335822554994
Dispersion correction            ... done
Dispersion correction           -0.044534215
FINAL SINGLE POINT ENERGY     -1200.335864306681
Dispersion correction            ... done
Dispersion correction           -0.044510696
FINAL SINGLE POINT ENERGY     -1200.335865852987
Dispersion correction            ... done
FINAL SINGLE POINT ENERGY     -1200.335876419627
FINAL SINGLE POINT ENERGY     -1200.335875339419
FINAL SINGLE POINT ENERGY     -1200.335868644817
FINAL SINGLE POINT ENERGY     -1200.335870372616
FINAL SINGLE POINT ENERGY     -1200.335872771534
FINAL SINGLE POINT ENERGY     -1200.335872115450
FINAL SINGLE POINT ENERGY     -1200.335783038641
FINAL SINGLE POINT ENERGY     -1200.335876128707
FINAL SINGLE POINT ENERGY     -1200.335872631429
FINAL SINGLE POINT ENERGY     -1200.335698550132
FINAL SINGLE POINT ENERGY     -1200.334884422936
FINAL SINGLE POINT ENERGY     -1200.335855280568
FINAL SINGLE POINT ENERGY     -1200.335865837073
Dispersion correction           -0.044521100
FINAL SINGLE POINT ENERGY     -1200.335868349458
Dispersion correction            ... done
Dispersion correction           -0.044521558
FINAL SINGLE POINT ENERGY     -1200.335869018579
Dispersion correction            ... done
                    ***********************HURRAY********************

CARTESIAN COORDINATES (ANGSTROEM)
---------------------------------
  C     -0.474122    1.833163   -0.207735
  C     -0.285624    2.925092    0.832395
  O      0.389627    3.907411    0.672254
  O     -0.947398    2.620390    1.933905
  C     -0.802703    3.529278    3.033289
  H     -1.522438    1.542873   -0.262513
  H      0.244543    3.595813    3.327885
  H     -1.400414    3.111557    3.838590
  C      1.584794    0.968511   -0.840804
  C      0.451472    0.622960    0.062469
  C     -0.182285   -0.710680   -0.247097
  C     -0.194353   -1.233601   -1.530658
  C     -0.798943   -2.452603   -1.807059
  C     -1.395667   -3.159313   -0.776205
  C     -1.394985   -2.659170    0.519370
  C     -0.793458   -1.433686    0.787716
  O     -0.752912   -0.868609    2.012555
  C     -1.328991   -1.574190    3.096051
  N      1.234516    1.905707   -1.690938
  O      1.813147    2.439737   -2.616724
  H      0.771835    0.629814    1.105444
  H      0.285482   -0.680509   -2.331505
  H     -0.797714   -2.844494   -2.816852
  H     -1.869306   -4.114679   -0.972067
  H     -1.863661   -3.225942    1.312487
  H     -2.399432   -1.732804    2.938652
  H     -1.179142   -0.949197    3.973894
  H     -0.835914   -2.538998    3.244777
  O     -0.091360    2.326542   -1.481362
  H     -1.171865    4.515751    2.753859
  C      2.879558    0.385925   -0.900033
  H      3.562962    0.777707   -1.646837
  C      3.277473   -0.613727   -0.099434
  H      2.629201   -1.045366    0.653463
  C      4.623718   -1.178543   -0.233372
  O      5.473611   -0.802567   -1.011148
  O      4.804330   -2.186000    0.623643
  C      6.083817   -2.818974    0.587652
  H      6.869680   -2.101621    0.826532
  H      6.046486   -3.603370    1.339342
  H      6.269254   -3.246421   -0.398303

 Multiplicity           Mult            ....    1
 Number of Electrons    NEL             ....  176
 Basis Dimension        Dim             ....  846

ORBITAL ENERGIES
----------------

  NO   OCC          E(Eh)            E(eV)
   0   2.0000     -19.294144      -525.0203
   1   2.0000     -19.271962      -524.4167
   2   2.0000     -19.260914      -524.1161
   3   2.0000     -19.248163      -523.7691
   4   2.0000     -19.237570      -523.4809
   5   2.0000     -19.212874      -522.8089
   6   2.0000     -19.197441      -522.3889
   7   2.0000     -14.603003      -397.3679
   8   2.0000     -10.366631      -282.0904
   9   2.0000     -10.356532      -281.8156
  10   2.0000     -10.317183      -280.7448
  11   2.0000     -10.294864      -280.1375
  12   2.0000     -10.294373      -280.1241
  13   2.0000     -10.274263      -279.5769
  14   2.0000     -10.273829      -279.5651
  15   2.0000     -10.268898      -279.4309
  16   2.0000     -10.267846      -279.4023
  17   2.0000     -10.263858      -279.2938
  18   2.0000     -10.246636      -278.8251
  19   2.0000     -10.244311      -278.7619
  20   2.0000     -10.233626      -278.4711
  21   2.0000     -10.231788      -278.4211
  22   2.0000     -10.228076      -278.3201
  23   2.0000     -10.223654      -278.1998
  24   2.0000      -1.251831       -34.0640
  25   2.0000      -1.162740       -31.6398
  26   2.0000      -1.147434       -31.2233
  27   2.0000      -1.115259       -30.3477
  28   2.0000      -1.111007       -30.2321
  29   2.0000      -1.069398       -29.0998
  30   2.0000      -1.054038       -28.6818
  31   2.0000      -0.934012       -25.4157
  32   2.0000      -0.893891       -24.3240
  33   2.0000      -0.849040       -23.1036
  34   2.0000      -0.836068       -22.7506
  35   2.0000      -0.796314       -21.6688
  36   2.0000      -0.781296       -21.2602
  37   2.0000      -0.765222       -20.8228
  38   2.0000      -0.755856       -20.5679
  39   2.0000      -0.724872       -19.7248
  40   2.0000      -0.709273       -19.3003
  41   2.0000      -0.681375       -18.5411
  42   2.0000      -0.634907       -17.2767
  43   2.0000      -0.634106       -17.2549
  44   2.0000      -0.615443       -16.7471
  45   2.0000      -0.593313       -16.1449
  46   2.0000      -0.583658       -15.8821
  47   2.0000      -0.579368       -15.7654
  48   2.0000      -0.563087       -15.3224
  49   2.0000      -0.554655       -15.0929
  50   2.0000      -0.548335       -14.9209
  51   2.0000      -0.532985       -14.5032
  52   2.0000      -0.523364       -14.2415
  53   2.0000      -0.521702       -14.1962
  54   2.0000      -0.513054       -13.9609
  55   2.0000      -0.507516       -13.8102
  56   2.0000      -0.507220       -13.8022
  57   2.0000      -0.503243       -13.6939
  58   2.0000      -0.492450       -13.4003
  59   2.0000      -0.488008       -13.2794
  60   2.0000      -0.476896       -12.9770
  61   2.0000      -0.461257       -12.5514
  62   2.0000      -0.458203       -12.4683
  63   2.0000      -0.449870       -12.2416
  64   2.0000      -0.443857       -12.0780
  65   2.0000      -0.436144       -11.8681
  66   2.0000      -0.431970       -11.7545
  67   2.0000      -0.424901       -11.5621
  68   2.0000      -0.420985       -11.4556
  69   2.0000      -0.411457       -11.1963
  70   2.0000      -0.404885       -11.0175
  71   2.0000      -0.389006       -10.5854
  72   2.0000      -0.387780       -10.5520
  73   2.0000      -0.385999       -10.5036
  74   2.0000      -0.377265       -10.2659
  75   2.0000      -0.371886       -10.1195
  76   2.0000      -0.358219        -9.7476
  77   2.0000      -0.349459        -9.5093
  78   2.0000      -0.345471        -9.4007
  79   2.0000      -0.338795        -9.2191
  80   2.0000      -0.337873        -9.1940
  81   2.0000      -0.330876        -9.0036
  82   2.0000      -0.327616        -8.9149
  83   2.0000      -0.312439        -8.5019
  84   2.0000      -0.306676        -8.3451
  85   2.0000      -0.273206        -7.4343
  86   2.0000      -0.247507        -6.7350
  87   2.0000      -0.242999        -6.6123
  88   0.0000      -0.087111        -2.3704
  89   0.0000      -0.022772        -0.6197
  90   0.0000      -0.005070        -0.1380
  91   0.0000       0.001604         0.0437
  92   0.0000       0.015143         0.4121

MULLIKEN ATOMIC CHARGES
-----------------------
   0 C :    0.126955
   1 C :    0.259803
   2 O :   -0.379959
   3 O :   -0.218193
   4 C :   -0.255850
   5 H :    0.174906
   6 H :    0.158453
   7 H :    0.165835
   8 C :    0.003319
   9 C :    0.110469
  10 C :   -0.089367
  11 C :   -0.151030
  12 C :   -0.206265
  13 C :   -0.144634
  14 C :   -0.295431
  15 C :    0.242680
  16 O :   -0.260159
  17 C :   -0.281226
  18 N :    0.433881
  19 O :   -0.420167
  20 H :    0.155031
  21 H :    0.167645
  22 H :    0.148776
  23 H :    0.153834
  24 H :    0.166525
  25 H :    0.151729
  26 H :    0.162966
  27 H :    0.152019
  28 O :   -0.216836
  29 H :    0.158581
  30 C :   -0.290585
  31 H :    0.160143
  32 C :   -0.115158
  33 H :    0.174114
  34 C :    0.335423
  35 O :   -0.418501
  36 O :   -0.230970
  37 C :   -0.254074
  38 H :    0.152539
  39 H :    0.160671
  40 H :    0.152107
Sum of atomic charges:   -0.0000000

LOEWDIN ATOMIC CHARGES
----------------------
   0 C :   -0.226187
   1 C :   -0.486124
   2 O :    0.094999
   3 O :    0.273870
   4 C :   -0.293526
   5 H :    0.179507
   6 H :    0.121286
   7 H :    0.123931
   8 C :   -0.190542
   9 C :   -0.140956
  10 C :   -0.109106
  11 C :   -0.104780
  12 C :   -0.162730
  13 C :   -0.142249
  14 C :   -0.137999
  15 C :   -0.230369
  16 O :    0.248422
  17 C :   -0.323686
  18 N :    0.081235
  19 O :   -0.087701
  20 H :    0.190148
  21 H :    0.164268
  22 H :    0.152904
  23 H :    0.155368
  24 H :    0.160951
  25 H :    0.117747
  26 H :    0.122080
  27 H :    0.117987
  28 O :    0.206445
  29 H :    0.121431
  30 C :   -0.087610
  31 H :    0.171852
  32 C :   -0.114889
  33 H :    0.164456
  34 C :   -0.496254
  35 O :    0.061576
  36 O :    0.254459
  37 C :   -0.308903
  38 H :    0.118583
  39 H :    0.121672
  40 H :    0.118434

  Mayer bond orders larger than 0.100000
B(  0-C ,  1-C ) :   0.9650 B(  0-C ,  5-H ) :   0.9215 B(  0-C ,  9-C ) :   0.9000
B(  0-C , 28-O ) :   0.9676 B(  1-C ,  2-O ) :   2.0081 B(  1-C ,  3-O ) :   1.2508
B(  3-O ,  4-C ) :   0.8815 B(  4-C ,  6-H ) :   0.9657 B(  4-C ,  7-H ) :   0.9621
B(  4-C , 29-H ) :   0.9661 B(  8-C ,  9-C ) :   0.9581 B(  8-C , 18-N ) :   1.5350
B(  8-C , 19-O ) :   0.1501 B(  8-C , 30-C ) :   1.1280 B(  9-C , 10-C ) :   0.8620
B(  9-C , 20-H ) :   0.9591 B( 10-C , 11-C ) :   1.3480 B( 10-C , 15-C ) :   1.3125
B( 11-C , 12-C ) :   1.4026 B( 11-C , 21-H ) :   0.9760 B( 12-C , 13-C ) :   1.4099
B( 12-C , 22-H ) :   0.9799 B( 13-C , 14-C ) :   1.3921 B( 13-C , 23-H ) :   0.9638
B( 14-C , 15-C ) :   1.3792 B( 14-C , 24-H ) :   0.9583 B( 15-C , 16-O ) :   1.1228
B( 16-O , 17-C ) :   0.9363 B( 17-C , 25-H ) :   0.9618 B( 17-C , 26-H ) :   0.9643
B( 17-C , 27-H ) :   0.9621 B( 18-N , 19-O ) :   1.5187 B( 18-N , 28-O ) :   0.8703
B( 30-C , 31-H ) :   0.9324 B( 30-C , 32-C ) :   1.7110 B( 32-C , 33-H ) :   0.9332
B( 32-C , 34-C ) :   1.0498 B( 34-C , 35-O ) :   1.9519 B( 34-C , 36-O ) :   1.2431
B( 36-O , 37-C ) :   0.8938 B( 37-C , 38-H ) :   0.9673 B( 37-C , 39-H ) :   0.9627
B( 37-C , 40-H ) :   0.9669

Dispersion correction           -0.044522257
FINAL SINGLE POINT ENERGY     -1200.335868692463

DIPOLE MOMENT
-------------
                                X             Y             Z
Electronic contribution:      0.89736      10.54435     -11.19041
Nuclear contribution   :     -3.18604     -13.10053      14.74311
                        -----------------------------------------
Total Dipole Moment    :     -2.28868      -2.55618       3.55270
                        -----------------------------------------
Magnitude (a.u.)       :      4.93901
Magnitude (Debye)      :     12.55396

Dispersion correction in the Hessian             ... done   (      0.6 sec)

VIBRATIONAL FREQUENCIES
-----------------------

Scaling factor for frequencies =  1.000000000  (already applied!)

   0:         0.00 cm**-1
   1:         0.00 cm**-1
   2:         0.00 cm**-1
   3:         0.00 cm**-1
   4:         0.00 cm**-1
   5:         0.00 cm**-1
   6:        12.52 cm**-1
   7:        22.47 cm**-1
   8:        36.21 cm**-1
   9:        44.97 cm**-1
  10:        49.53 cm**-1
  11:        52.72 cm**-1
  12:        80.46 cm**-1
  13:        93.69 cm**-1
  14:        97.43 cm**-1
  15:       101.94 cm**-1
  16:       129.39 cm**-1
  17:       149.14 cm**-1
  18:       154.62 cm**-1
  19:       156.13 cm**-1
  20:       165.15 cm**-1
  21:       192.77 cm**-1
  22:       216.17 cm**-1
  23:       228.65 cm**-1
  24:       237.88 cm**-1
  25:       249.15 cm**-1
  26:       257.25 cm**-1
  27:       273.11 cm**-1
  28:       307.98 cm**-1
  29:       326.45 cm**-1
  30:       334.64 cm**-1
  31:       348.25 cm**-1
  32:       385.02 cm**-1
  33:       434.08 cm**-1
  34:       483.06 cm**-1
  35:       486.67 cm**-1
  36:       497.23 cm**-1
  37:       560.04 cm**-1
  38:       576.52 cm**-1
  39:       593.42 cm**-1
  40:       612.89 cm**-1
  41:       664.17 cm**-1
  42:       686.06 cm**-1
  43:       714.42 cm**-1
  44:       732.62 cm**-1
  45:       751.15 cm**-1
  46:       755.69 cm**-1
  47:       768.92 cm**-1
  48:       773.97 cm**-1
  49:       789.82 cm**-1
  50:       815.60 cm**-1
  51:       857.92 cm**-1
  52:       874.84 cm**-1
  53:       896.85 cm**-1
  54:       905.11 cm**-1
  55:       946.08 cm**-1
  56:       958.42 cm**-1
  57:       964.54 cm**-1
  58:       969.26 cm**-1
  59:       992.91 cm**-1
  60:      1008.04 cm**-1
  61:      1012.34 cm**-1
  62:      1049.30 cm**-1
  63:      1062.03 cm**-1
  64:      1071.35 cm**-1
  65:      1084.24 cm**-1
  66:      1100.09 cm**-1
  67:      1138.27 cm**-1
  68:      1170.08 cm**-1
  69:      1171.19 cm**-1
  70:      1171.27 cm**-1
  71:      1175.33 cm**-1
  72:      1195.55 cm**-1
  73:      1199.35 cm**-1
  74:      1206.06 cm**-1
  75:      1213.23 cm**-1
  76:      1219.02 cm**-1
  77:      1241.16 cm**-1
  78:      1244.30 cm**-1
  79:      1262.17 cm**-1
  80:      1289.44 cm**-1
  81:      1295.71 cm**-1
  82:      1309.78 cm**-1
  83:      1327.90 cm**-1
  84:      1337.43 cm**-1
  85:      1365.70 cm**-1
  86:      1383.32 cm**-1
  87:      1397.60 cm**-1
  88:      1458.82 cm**-1
  89:      1465.22 cm**-1
  90:      1465.86 cm**-1
  91:      1466.57 cm**-1
  92:      1470.07 cm**-1
  93:      1472.90 cm**-1
  94:      1473.13 cm**-1
  95:      1473.42 cm**-1
  96:      1477.43 cm**-1
  97:      1483.50 cm**-1
  98:      1499.42 cm**-1
  99:      1537.40 cm**-1
 100:      1643.06 cm**-1
 101:      1650.74 cm**-1
 102:      1664.11 cm**-1
 103:      1711.26 cm**-1
 104:      1758.78 cm**-1
 105:      1807.66 cm**-1
 106:      3037.73 cm**-1
 107:      3068.47 cm**-1
 108:      3075.85 cm**-1
 109:      3109.39 cm**-1
 110:      3113.66 cm**-1
 111:      3146.09 cm**-1
 112:      3149.42 cm**-1
 113:      3161.63 cm**-1
 114:      3166.66 cm**-1
 115:      3185.32 cm**-1
 116:      3187.57 cm**-1
 117:      3195.04 cm**-1
 118:      3196.80 cm**-1
 119:      3197.69 cm**-1
 120:      3215.60 cm**-1
 121:      3216.88 cm**-1
 122:      3232.00 cm**-1

IR SPECTRUM
-----------

 Mode   freq       eps      Int      T**2         TX        TY        TZ
       cm**-1   L/(mol*cm) km/mol    a.u.
----------------------------------------------------------------------------
  6:     12.52   0.000049    0.25  0.001219  ( 0.010145 -0.031596 -0.010862)
  7:     22.47   0.000268    1.35  0.003718  ( 0.046971  0.012223  0.036909)
  8:     36.21   0.000401    2.03  0.003459  (-0.050457  0.027873 -0.011673)
  9:     44.97   0.000551    2.78  0.003821  (-0.026505 -0.035047 -0.043473)
 10:     49.53   0.000168    0.85  0.001060  ( 0.024838 -0.005920  0.020205)
 11:     52.72   0.000244    1.23  0.001441  ( 0.002238  0.035512  0.013238)
 12:     80.46   0.000135    0.68  0.000524  ( 0.004354 -0.021568 -0.006302)
 13:     93.69   0.000111    0.56  0.000371  (-0.000370 -0.018048 -0.006725)
 14:     97.43   0.001112    5.62  0.003562  ( 0.053368 -0.023711  0.012295)
 15:    101.94   0.000222    1.12  0.000681  (-0.020814  0.002095 -0.015586)
 16:    129.39   0.000289    1.46  0.000696  ( 0.014273  0.012387  0.018409)
 17:    149.14   0.000130    0.66  0.000271  ( 0.011822 -0.011421  0.001081)
 18:    154.62   0.000480    2.42  0.000968  (-0.019339 -0.019244 -0.014954)
 19:    156.13   0.000097    0.49  0.000194  ( 0.009042  0.010568  0.000779)
 20:    165.15   0.000956    4.83  0.001806  (-0.032148  0.002955 -0.027644)
 21:    192.77   0.000336    1.70  0.000544  ( 0.011995 -0.019133 -0.005868)
 22:    216.17   0.002256   11.40  0.003256  ( 0.029585 -0.027024 -0.040628)
 23:    228.65   0.000539    2.72  0.000736  ( 0.020470  0.013446  0.011663)
 24:    237.88   0.000160    0.81  0.000211  (-0.005439  0.010515 -0.008391)
 25:    249.15   0.000725    3.66  0.000908  (-0.025977  0.008619 -0.012602)
 26:    257.25   0.002159   10.91  0.002620  ( 0.034890  0.011710 -0.035568)
 27:    273.11   0.001319    6.67  0.001508  ( 0.014620 -0.020605  0.029483)
 28:    307.98   0.001885    9.53  0.001910  (-0.007926  0.042764 -0.004272)
 29:    326.45   0.001049    5.30  0.001002  (-0.021406 -0.011362  0.020375)
 30:    334.64   0.009820   49.63  0.009157  ( 0.075025 -0.056888  0.017100)
 31:    348.25   0.003346   16.91  0.002998  ( 0.009428  0.003458 -0.053828)
 32:    385.02   0.000876    4.43  0.000710  (-0.004649 -0.006208 -0.025494)
 33:    434.08   0.000303    1.53  0.000218  ( 0.007299  0.011192  0.006258)
 34:    483.06   0.000881    4.45  0.000569  (-0.013463  0.016512 -0.010732)
 35:    486.67   0.001745    8.82  0.001119  (-0.031177  0.011741  0.003005)
 36:    497.23   0.002451   12.39  0.001538  ( 0.034640  0.015951  0.009154)
 37:    560.04   0.000536    2.71  0.000298  (-0.017060  0.002072 -0.001753)
 38:    576.52   0.003493   17.65  0.001890  ( 0.033115  0.010971  0.025952)
 39:    593.42   0.001472    7.44  0.000774  (-0.023674  0.011226  0.009357)
 40:    612.89   0.001082    5.47  0.000551  (-0.013392 -0.016171  0.010486)
 41:    664.17   0.013004   65.72  0.006110  ( 0.069257 -0.034556 -0.010922)
 42:    686.06   0.008159   41.23  0.003711  (-0.030535  0.046768  0.024321)
 43:    714.42   0.003485   17.61  0.001522  (-0.031184 -0.016465 -0.016693)
 44:    732.62   0.002224   11.24  0.000947  ( 0.022625  0.016635 -0.012590)
 45:    751.15   0.002062   10.42  0.000857  (-0.025819 -0.002579 -0.013537)
 46:    755.69   0.002173   10.98  0.000897  ( 0.015592 -0.025389 -0.003095)
 47:    768.92   0.014549   73.52  0.005905  ( 0.071184 -0.019231  0.021622)
 48:    773.97   0.013510   68.28  0.005447  ( 0.050689 -0.053173  0.007107)
 49:    789.82   0.007390   37.35  0.002920  ( 0.035933 -0.033486  0.022527)
 50:    815.60   0.007228   36.53  0.002766  ( 0.005728 -0.036448 -0.037476)
 51:    857.92   0.015159   76.61  0.005514  (-0.043847  0.059929 -0.000090)
 52:    874.84   0.000511    2.58  0.000182  ( 0.011308 -0.007362  0.000583)
 53:    896.85   0.008439   42.65  0.002936  ( 0.038590  0.016279  0.034385)
 54:    905.11   0.007259   36.68  0.002503  (-0.019727  0.045075 -0.009047)
 55:    946.08   0.037334  188.67  0.012315  (-0.090956  0.027615  0.057263)
 56:    958.42   0.023494  118.73  0.007650  ( 0.080866 -0.004214 -0.033058)
 57:    964.54   0.003432   17.35  0.001110  (-0.028189  0.012696  0.012438)
 58:    969.26   0.002053   10.37  0.000661  ( 0.000546  0.025351 -0.004231)
 59:    992.91   0.000046    0.23  0.000014  ( 0.002738  0.000336 -0.002598)
 60:   1008.04   0.013485   68.15  0.004175  (-0.018089 -0.044749 -0.042952)
 61:   1012.34   0.002573   13.00  0.000793  ( 0.014042 -0.012811 -0.020784)
 62:   1049.30   0.002328   11.77  0.000692  (-0.005181 -0.022890 -0.011904)
 63:   1062.03   0.000720    3.64  0.000212  ( 0.004057  0.005180  0.012971)
 64:   1071.35   0.013193   66.67  0.003843  ( 0.029229  0.030900 -0.045099)
 65:   1084.24   0.008630   43.61  0.002484  ( 0.003803 -0.008473 -0.048967)
 66:   1100.09   0.017834   90.12  0.005059  ( 0.024454 -0.007571 -0.066360)
 67:   1138.27   0.013297   67.20  0.003646  (-0.011063 -0.018889  0.056270)
 68:   1170.08   0.000164    0.83  0.000044  ( 0.001965  0.004571  0.004358)
 69:   1171.19   0.000195    0.99  0.000052  ( 0.005510 -0.004275  0.001839)
 70:   1171.27   0.000065    0.33  0.000017  ( 0.002998 -0.001974 -0.002094)
 71:   1175.33   0.001603    8.10  0.000426  (-0.010949 -0.009212  0.014864)
 72:   1195.55   0.004304   21.75  0.001123  ( 0.017625 -0.026335  0.010918)
 73:   1199.35   0.065084  328.91  0.016935  ( 0.067897 -0.094479  0.058294)
 74:   1206.06   0.004321   21.84  0.001118  (-0.015125  0.013629  0.026525)
 75:   1213.23   0.002697   13.63  0.000694  (-0.017884 -0.003651  0.018990)
 76:   1219.02   0.067652  341.89  0.017319  ( 0.061991 -0.096042  0.065205)
 77:   1241.16   0.041129  207.85  0.010341  (-0.056439  0.012963  0.083592)
 78:   1244.30   0.040841  206.39  0.010243  (-0.062239  0.070227 -0.037908)
 79:   1262.17   0.091355  461.67  0.022587  (-0.106608  0.103191  0.023946)
 80:   1289.44   0.019004   96.04  0.004599  ( 0.007699  0.031512  0.059557)
 81:   1295.71   0.077601  392.17  0.018690  (-0.034647 -0.011087  0.131782)
 82:   1309.78   0.017421   88.04  0.004151  (-0.013095 -0.033404 -0.053511)
 83:   1327.90   0.010802   54.59  0.002539  (-0.028933  0.013834  0.038860)
 84:   1337.43   0.087952  444.47  0.020522  ( 0.076616 -0.087557  0.083581)
 85:   1365.70   0.029936  151.28  0.006840  ( 0.016600 -0.048634  0.064804)
 86:   1383.32   0.026625  134.55  0.006006  (-0.027192  0.067756 -0.025999)
 87:   1397.60   0.033648  170.05  0.007513  ( 0.023476  0.008832 -0.082971)
 88:   1458.82   0.005762   29.12  0.001233  ( 0.034598 -0.004101  0.004333)
 89:   1465.22   0.005019   25.37  0.001069  ( 0.005358  0.025079  0.020282)
 90:   1465.86   0.006257   31.62  0.001332  (-0.021442  0.027814  0.009936)
 91:   1466.57   0.004089   20.66  0.000870  (-0.021956  0.017575 -0.008896)
 92:   1470.07   0.010709   54.12  0.002273  ( 0.009504 -0.023050 -0.040639)
 93:   1472.90   0.003412   17.24  0.000723  (-0.017144 -0.014681  0.014613)
 94:   1473.13   0.003959   20.01  0.000839  (-0.009395 -0.020311  0.018382)
 95:   1473.42   0.009277   46.88  0.001965  ( 0.017756 -0.028453  0.028982)
 96:   1477.43   0.016383   82.79  0.003460  (-0.024130  0.042765 -0.032392)
 97:   1483.50   0.005407   27.33  0.001137  (-0.002313  0.016927  0.029079)
 98:   1499.42   0.014920   75.40  0.003105  (-0.005777  0.003208  0.055331)
 99:   1537.40   0.039840  201.34  0.008087  ( 0.004402 -0.020455 -0.087459)
100:   1643.06   0.293605  1483.76  0.055764  (-0.101957  0.172377 -0.125120)
101:   1650.74   0.032351  163.49  0.006116  ( 0.057216 -0.050789  0.016205)
102:   1664.11   0.016434   83.05  0.003082  (-0.008976  0.026831  0.047763)
103:   1711.26   0.039406  199.14  0.007186  (-0.038864 -0.049000  0.057225)
104:   1758.78   0.134397  679.19  0.023846  (-0.091968 -0.067214  0.104262)
105:   1807.66   0.103874  524.94  0.017932  ( 0.071627  0.101994 -0.048978)
106:   3037.73   0.012121   61.26  0.001245  (-0.013583 -0.015472  0.028659)
107:   3068.47   0.006751   34.12  0.000687  ( 0.022098 -0.013876  0.002391)
108:   3075.85   0.005095   25.75  0.000517  ( 0.000433 -0.013570 -0.018236)
109:   3109.39   0.007264   36.71  0.000729  ( 0.023816 -0.012048  0.004082)
110:   3113.66   0.000565    2.85  0.000057  ( 0.003641  0.005965 -0.002782)
111:   3146.09   0.000407    2.06  0.000040  (-0.002809  0.001440  0.005514)
112:   3149.42   0.004236   21.41  0.000420  (-0.006960 -0.013160 -0.014075)
113:   3161.63   0.003130   15.82  0.000309  ( 0.014035 -0.009319  0.005010)
114:   3166.66   0.003749   18.94  0.000369  ( 0.003190  0.011640  0.014958)
115:   3185.32   0.002921   14.76  0.000286  ( 0.001408  0.011896 -0.011944)
116:   3187.57   0.000507    2.56  0.000050  (-0.003158 -0.004618  0.004286)
117:   3195.04   0.001744    8.81  0.000170  ( 0.007620  0.006183 -0.008606)
118:   3196.80   0.001499    7.58  0.000146  (-0.005903 -0.010481  0.001294)
119:   3197.69   0.000632    3.19  0.000062  (-0.003136 -0.003748  0.006149)
120:   3215.60   0.002620   13.24  0.000254  ( 0.001944  0.007889  0.013720)
121:   3216.88   0.000489    2.47  0.000047  (-0.005374  0.004083 -0.001372)
122:   3232.00   0.000330    1.67  0.000032  ( 0.002725  0.003073 -0.003876)

--------------------------
THERMOCHEMISTRY AT 298.15K
--------------------------

Temperature         ... 298.15 K
Pressure            ... 1.00 atm
Total Mass          ... 335.31 AMU

Throughout the following assumptions are being made:
  (1) The electronic state is orbitally nondegenerate
  (2) There are no thermally accessible electronically excited states
  (3) Hindered rotations indicated by low frequency modes are not
      treated as such but are treated as vibrations and this may
      cause some error
  (4) All equations used are the standard statistical mechanics
      equations for an ideal gas
  (5) All vibrations are strictly harmonic

freq.      12.52  E(vib)   ...       0.57
freq.      22.47  E(vib)   ...       0.56
freq.      36.21  E(vib)   ...       0.54
freq.      44.97  E(vib)   ...       0.53
freq.      49.53  E(vib)   ...       0.52
freq.      52.72  E(vib)   ...       0.52
freq.      80.46  E(vib)   ...       0.48
freq.      93.69  E(vib)   ...       0.47
freq.      97.43  E(vib)   ...       0.46
freq.     101.94  E(vib)   ...       0.46
freq.     129.39  E(vib)   ...       0.43
freq.     149.14  E(vib)   ...       0.40
freq.     154.62  E(vib)   ...       0.40
freq.     156.13  E(vib)   ...       0.40
freq.     165.15  E(vib)   ...       0.39
freq.     192.77  E(vib)   ...       0.36
freq.     216.17  E(vib)   ...       0.34
freq.     228.65  E(vib)   ...       0.32
freq.     237.88  E(vib)   ...       0.32
freq.     249.15  E(vib)   ...       0.31
freq.     257.25  E(vib)   ...       0.30
freq.     273.11  E(vib)   ...       0.29
freq.     307.98  E(vib)   ...       0.26
freq.     326.45  E(vib)   ...       0.24
freq.     334.64  E(vib)   ...       0.24
freq.     348.25  E(vib)   ...       0.23
freq.     385.02  E(vib)   ...       0.20
freq.     434.08  E(vib)   ...       0.17
freq.     483.06  E(vib)   ...       0.15
freq.     486.67  E(vib)   ...       0.15
freq.     497.23  E(vib)   ...       0.14
freq.     560.04  E(vib)   ...       0.12
freq.     576.52  E(vib)   ...       0.11
freq.     593.42  E(vib)   ...       0.10
freq.     612.89  E(vib)   ...       0.10
freq.     664.17  E(vib)   ...       0.08
freq.     686.06  E(vib)   ...       0.07
freq.     714.42  E(vib)   ...       0.07
freq.     732.62  E(vib)   ...       0.06
freq.     751.15  E(vib)   ...       0.06
freq.     755.69  E(vib)   ...       0.06
freq.     768.92  E(vib)   ...       0.06
freq.     773.97  E(vib)   ...       0.05
freq.     789.82  E(vib)   ...       0.05
freq.     815.60  E(vib)   ...       0.05
freq.     857.92  E(vib)   ...       0.04
freq.     874.84  E(vib)   ...       0.04
freq.     896.85  E(vib)   ...       0.03
freq.     905.11  E(vib)   ...       0.03
freq.     946.08  E(vib)   ...       0.03
freq.     958.42  E(vib)   ...       0.03
freq.     964.54  E(vib)   ...       0.03
freq.     969.26  E(vib)   ...       0.03
freq.     992.91  E(vib)   ...       0.02
freq.    1008.04  E(vib)   ...       0.02
freq.    1012.34  E(vib)   ...       0.02
freq.    1049.30  E(vib)   ...       0.02
freq.    1062.03  E(vib)   ...       0.02
freq.    1071.35  E(vib)   ...       0.02
freq.    1084.24  E(vib)   ...       0.02
freq.    1100.09  E(vib)   ...       0.02
freq.    1138.27  E(vib)   ...       0.01
freq.    1170.08  E(vib)   ...       0.01
freq.    1171.19  E(vib)   ...       0.01
freq.    1171.27  E(vib)   ...       0.01
freq.    1175.33  E(vib)   ...       0.01
freq.    1195.55  E(vib)   ...       0.01
freq.    1199.35  E(vib)   ...       0.01
freq.    1206.06  E(vib)   ...       0.01
freq.    1213.23  E(vib)   ...       0.01
freq.    1219.02  E(vib)   ...       0.01
freq.    1241.16  E(vib)   ...       0.01
freq.    1244.30  E(vib)   ...       0.01
freq.    1262.17  E(vib)   ...       0.01
freq.    1289.44  E(vib)   ...       0.01
freq.    1295.71  E(vib)   ...       0.01
freq.    1309.78  E(vib)   ...       0.01
freq.    1327.90  E(vib)   ...       0.01
freq.    1337.43  E(vib)   ...       0.01
freq.    1365.70  E(vib)   ...       0.01
freq.    1383.32  E(vib)   ...       0.00
freq.    1397.60  E(vib)   ...       0.00
freq.    1458.82  E(vib)   ...       0.00
freq.    1465.22  E(vib)   ...       0.00
freq.    1465.86  E(vib)   ...       0.00
freq.    1466.57  E(vib)   ...       0.00
freq.    1470.07  E(vib)   ...       0.00
freq.    1472.90  E(vib)   ...       0.00
freq.    1473.13  E(vib)   ...       0.00
freq.    1473.42  E(vib)   ...       0.00
freq.    1477.43  E(vib)   ...       0.00
freq.    1483.50  E(vib)   ...       0.00
freq.    1499.42  E(vib)   ...       0.00
freq.    1537.40  E(vib)   ...       0.00
freq.    1643.06  E(vib)   ...       0.00
freq.    1650.74  E(vib)   ...       0.00
freq.    1664.11  E(vib)   ...       0.00
freq.    1711.26  E(vib)   ...       0.00
freq.    1758.78  E(vib)   ...       0.00
freq.    1807.66  E(vib)   ...       0.00
freq.    3037.73  E(vib)   ...       0.00
freq.    3068.47  E(vib)   ...       0.00
freq.    3075.85  E(vib)   ...       0.00
freq.    3109.39  E(vib)   ...       0.00
freq.    3113.66  E(vib)   ...       0.00
freq.    3146.09  E(vib)   ...       0.00
freq.    3149.42  E(vib)   ...       0.00
freq.    3161.63  E(vib)   ...       0.00
freq.    3166.66  E(vib)   ...       0.00
freq.    3185.32  E(vib)   ...       0.00
freq.    3187.57  E(vib)   ...       0.00
freq.    3195.04  E(vib)   ...       0.00
freq.    3196.80  E(vib)   ...       0.00
freq.    3197.69  E(vib)   ...       0.00
freq.    3215.60  E(vib)   ...       0.00
freq.    3216.88  E(vib)   ...       0.00
freq.    3232.00  E(vib)   ...       0.00

------------
INNER ENERGY
------------

The inner energy is: U= E(el) + E(ZPE) + E(vib) + E(rot) + E(trans)
    E(el)   - is the total energy from the electronic structure calculation
              = E(kin-el) + E(nuc-el) + E(el-el) + E(nuc-nuc)
    E(ZPE)  - the the zero temperature vibrational energy from the frequency calculation
    E(vib)  - the the finite temperature correction to E(ZPE) due to population
              of excited vibrational states
    E(rot)  - is the rotational thermal energy
    E(trans)- is the translational thermal energy

Summary of contributions to the inner energy U:
Electronic energy                ...  -1200.33586869 Eh
Zero point energy                ...      0.31917668 Eh     200.29 kcal/mol
Thermal vibrational correction   ...      0.02043909 Eh      12.83 kcal/mol
Thermal rotational correction    ...      0.00141627 Eh       0.89 kcal/mol
Thermal translational correction ...      0.00141627 Eh       0.89 kcal/mol
-----------------------------------------------------------------------
Total thermal energy                  -1199.99342038 Eh

Summary of corrections to the electronic energy:
(perhaps to be used in another calculation)
Total thermal correction                  0.02327163 Eh      14.60 kcal/mol

Rotational constants in cm-1:     0.008322     0.005912     0.004805

                             ****ORCA TERMINATED NORMALLY****
TOTAL RUN TIME: 0 days 1 hours 19 minutes 55 seconds 679 msec
