                         Program Version 5.0.4 -  RELEASE  -
|  1> %pal nprocs 24 end
|  2> %maxcore 3500
|  3> ! PBE0 D3BJ def2-TZVP TightSCF OPT FREQ TightOpt
|  4> ! CPCM(dmso)
|  5> %scf
|  6> MaxIter 800
|  7> end
|  8> %geom
|  9> MaxIter 800
| 10> MaxStep 0.2
| 11> end
| 12> *xyz 0 1
| 13> C        0.859322000     -1.336499000      0.024841000
| 14> C        0.977462000     -2.400807000     -1.050951000
| 15> O        1.868313000     -3.206521000     -1.126436000
| 16> O       -0.034015000     -2.301707000     -1.896754000
| 17> C       -0.031290000     -3.215588000     -2.999750000
| 18> H       -0.158322000     -1.313014000      0.428536000
| 19> H        0.863316000     -3.069796000     -3.605076000
| 20> H       -0.923096000     -2.982934000     -3.575107000
| 21> C        2.727220000      0.031836000     -0.023522000
| 22> C        1.309479000      0.051339000     -0.491890000
| 23> C        0.505868000      1.204077000      0.056810000
| 24> C        0.837706000      1.838400000      1.243466000
| 25> C        0.069459000      2.883075000      1.742092000
| 26> C       -1.046291000      3.298405000      1.035863000
| 27> C       -1.400725000      2.680320000     -0.156027000
| 28> C       -0.632602000      1.629613000     -0.644077000
| 29> O       -0.914678000      0.955714000     -1.778377000
| 30> C       -2.037392000      1.361531000     -2.537577000
| 31> N        2.918805000     -0.909173000      0.867091000
| 32> O        3.884009000     -1.229289000      1.535162000
| 33> H        1.261351000      0.072902000     -1.581183000
| 34> H        1.715578000      1.512090000      1.791270000
| 35> H        0.345010000      3.364737000      2.672422000
| 36> H       -1.657699000      4.111612000      1.410445000
| 37> H       -2.280715000      3.012699000     -0.689667000
| 38> H       -2.959068000      1.268289000     -1.957113000
| 39> H       -2.078532000      0.691700000     -3.394011000
| 40> H       -1.926893000      2.393318000     -2.883182000
| 41> O        1.743967000     -1.646316000      1.092613000
| 42> H       -0.067712000     -4.242296000     -2.636005000
| 43> C        3.755862000      0.906389000     -0.385466000
| 44> C        4.611974000      1.683800000     -0.721710000
| 45> H        5.375307000      2.369489000     -1.016981000
| 46> *
| 47>
| 48>                          ****END OF INPUT****
 Total Charge           Charge          ....    0
 Multiplicity           Mult            ....    1
 Number of Electrons    NEL             ....  144
Dispersion correction           -0.036383997
FINAL SINGLE POINT ENERGY      -971.336045345886
Dispersion correction            ... done
Dispersion correction           -0.036408630
FINAL SINGLE POINT ENERGY      -971.336100213639
Dispersion correction            ... done
Dispersion correction           -0.036409856
FINAL SINGLE POINT ENERGY      -971.336112531201
Dispersion correction            ... done
FINAL SINGLE POINT ENERGY      -971.336132472147
FINAL SINGLE POINT ENERGY      -971.336138676681
FINAL SINGLE POINT ENERGY      -971.336135442765
FINAL SINGLE POINT ENERGY      -971.336122945070
FINAL SINGLE POINT ENERGY      -971.336114862145
FINAL SINGLE POINT ENERGY      -971.336112683018
FINAL SINGLE POINT ENERGY      -971.336112077141
Dispersion correction           -0.036544587
FINAL SINGLE POINT ENERGY      -971.336110819875
Dispersion correction            ... done
Dispersion correction           -0.036543739
FINAL SINGLE POINT ENERGY      -971.336110202772
Dispersion correction            ... done
                    ***********************HURRAY********************

CARTESIAN COORDINATES (ANGSTROEM)
---------------------------------
  C      0.804577   -1.294802   -0.031897
  C      0.958104   -2.352392   -1.115088
  O      1.850103   -3.158543   -1.154411
  O     -0.010918   -2.238950   -2.004326
  C      0.042444   -3.138952   -3.118582
  H     -0.229332   -1.251119    0.307832
  H      0.966041   -2.988070   -3.677217
  H     -0.819724   -2.894974   -3.732942
  C      2.719117    0.002586    0.029500
  C      1.324838    0.085117   -0.498591
  C      0.533802    1.249736    0.043909
  C      0.916780    1.956807    1.172301
  C      0.154693    3.016176    1.650554
  C     -1.007126    3.369583    0.985870
  C     -1.415998    2.674195   -0.145640
  C     -0.650867    1.612713   -0.615077
  O     -0.972425    0.866912   -1.691719
  C     -2.163787    1.176747   -2.390088
  N      2.828781   -0.951291    0.920556
  O      3.744492   -1.318878    1.629793
  H      1.323615    0.129725   -1.588871
  H      1.828035    1.678677    1.690863
  H      0.471834    3.557589    2.533520
  H     -1.611268    4.195251    1.344634
  H     -2.327903    2.961853   -0.651306
  H     -3.037506    1.075756   -1.740194
  H     -2.229841    0.457661   -3.203896
  H     -2.129276    2.190449   -2.798767
  O      1.613614   -1.642913    1.080920
  H     -0.014550   -4.169918   -2.770101
  C      3.801603    0.829063   -0.285277
  C      4.706478    1.565922   -0.582622
  H      5.512546    2.215679   -0.843893

 Multiplicity           Mult            ....    1
 Number of Electrons    NEL             ....  144
 Basis Dimension        Dim             ....  698

ORBITAL ENERGIES
----------------

  NO   OCC          E(Eh)            E(eV)
   0   2.0000     -19.293722      -525.0089
   1   2.0000     -19.271281      -524.3982
   2   2.0000     -19.248170      -523.7693
   3   2.0000     -19.235619      -523.4278
   4   2.0000     -19.212523      -522.7993
   5   2.0000     -14.603311      -397.3763
   6   2.0000     -10.366432      -282.0850
   7   2.0000     -10.317753      -280.7603
   8   2.0000     -10.306563      -280.4558
   9   2.0000     -10.293885      -280.1108
  10   2.0000     -10.277113      -279.6545
  11   2.0000     -10.273945      -279.5683
  12   2.0000     -10.267711      -279.3986
  13   2.0000     -10.253680      -279.0168
  14   2.0000     -10.245759      -278.8013
  15   2.0000     -10.244738      -278.7735
  16   2.0000     -10.233953      -278.4800
  17   2.0000     -10.231666      -278.4178
  18   2.0000     -10.227972      -278.3173
  19   2.0000     -10.223466      -278.1947
  20   2.0000      -1.251232       -34.0478
  21   2.0000      -1.162432       -31.6314
  22   2.0000      -1.114837       -30.3363
  23   2.0000      -1.111340       -30.2411
  24   2.0000      -1.068907       -29.0864
  25   2.0000      -0.933390       -25.3988
  26   2.0000      -0.893850       -24.3229
  27   2.0000      -0.848810       -23.0973
  28   2.0000      -0.802399       -21.8344
  29   2.0000      -0.794088       -21.6082
  30   2.0000      -0.781206       -21.2577
  31   2.0000      -0.757417       -20.6104
  32   2.0000      -0.724404       -19.7120
  33   2.0000      -0.706908       -19.2359
  34   2.0000      -0.678012       -18.4496
  35   2.0000      -0.635118       -17.2824
  36   2.0000      -0.624059       -16.9815
  37   2.0000      -0.614155       -16.7120
  38   2.0000      -0.584107       -15.8944
  39   2.0000      -0.579464       -15.7680
  40   2.0000      -0.557339       -15.1660
  41   2.0000      -0.548816       -14.9340
  42   2.0000      -0.541479       -14.7344
  43   2.0000      -0.524734       -14.2787
  44   2.0000      -0.523065       -14.2333
  45   2.0000      -0.516542       -14.0558
  46   2.0000      -0.507702       -13.8153
  47   2.0000      -0.500653       -13.6235
  48   2.0000      -0.489537       -13.3210
  49   2.0000      -0.477820       -13.0021
  50   2.0000      -0.461041       -12.5456
  51   2.0000      -0.459674       -12.5084
  52   2.0000      -0.450152       -12.2493
  53   2.0000      -0.442682       -12.0460
  54   2.0000      -0.433026       -11.7832
  55   2.0000      -0.424292       -11.5456
  56   2.0000      -0.411164       -11.1883
  57   2.0000      -0.392184       -10.6719
  58   2.0000      -0.387211       -10.5365
  59   2.0000      -0.387058       -10.5324
  60   2.0000      -0.374469       -10.1898
  61   2.0000      -0.359248        -9.7756
  62   2.0000      -0.351402        -9.5621
  63   2.0000      -0.346034        -9.4161
  64   2.0000      -0.343132        -9.3371
  65   2.0000      -0.337560        -9.1855
  66   2.0000      -0.331150        -9.0110
  67   2.0000      -0.318679        -8.6717
  68   2.0000      -0.312846        -8.5130
  69   2.0000      -0.274068        -7.4578
  70   2.0000      -0.250300        -6.8110
  71   2.0000      -0.242911        -6.6099
  72   0.0000      -0.060739        -1.6528
  73   0.0000      -0.019449        -0.5292
  74   0.0000      -0.006973        -0.1898
  75   0.0000       0.001747         0.0475
  76   0.0000       0.012147         0.3305

MULLIKEN ATOMIC CHARGES
-----------------------
   0 C :    0.108727
   1 C :    0.254057
   2 O :   -0.380521
   3 O :   -0.214055
   4 C :   -0.256434
   5 H :    0.179145
   6 H :    0.158272
   7 H :    0.165584
   8 C :   -0.187805
   9 C :    0.104579
  10 C :   -0.046328
  11 C :   -0.174829
  12 C :   -0.206914
  13 C :   -0.149072
  14 C :   -0.288663
  15 C :    0.224435
  16 O :   -0.247265
  17 C :   -0.285655
  18 N :    0.413216
  19 O :   -0.419458
  20 H :    0.145951
  21 H :    0.164716
  22 H :    0.149486
  23 H :    0.153830
  24 H :    0.167730
  25 H :    0.151380
  26 H :    0.163125
  27 H :    0.152635
  28 O :   -0.215014
  29 H :    0.158114
  30 C :   -0.007609
  31 C :   -0.164067
  32 H :    0.228710
Sum of atomic charges:   -0.0000000

LOEWDIN ATOMIC CHARGES
----------------------
   0 C :   -0.226895
   1 C :   -0.485867
   2 O :    0.094569
   3 O :    0.275985
   4 C :   -0.294047
   5 H :    0.180090
   6 H :    0.121179
   7 H :    0.123753
   8 C :   -0.200981
   9 C :   -0.135441
  10 C :   -0.105590
  11 C :   -0.106702
  12 C :   -0.163271
  13 C :   -0.142663
  14 C :   -0.138334
  15 C :   -0.230995
  16 O :    0.253374
  17 C :   -0.323696
  18 N :    0.081420
  19 O :   -0.092079
  20 H :    0.190959
  21 H :    0.164202
  22 H :    0.152860
  23 H :    0.155320
  24 H :    0.160961
  25 H :    0.117943
  26 H :    0.121983
  27 H :    0.118128
  28 O :    0.205430
  29 H :    0.121362
  30 C :   -0.100474
  31 C :   -0.040094
  32 H :    0.147613

  Mayer bond orders larger than 0.100000
B(  0-C ,  1-C ) :   0.9619 B(  0-C ,  5-H ) :   0.9209 B(  0-C ,  9-C ) :   0.9219
B(  0-C , 28-O ) :   0.9712 B(  1-C ,  2-O ) :   2.0054 B(  1-C ,  3-O ) :   1.2516
B(  3-O ,  4-C ) :   0.8832 B(  4-C ,  6-H ) :   0.9657 B(  4-C ,  7-H ) :   0.9619
B(  4-C , 29-H ) :   0.9659 B(  8-C ,  9-C ) :   0.9862 B(  8-C , 18-N ) :   1.5454
B(  8-C , 30-C ) :   1.3303 B(  8-C , 31-C ) :  -0.1511 B(  9-C , 10-C ) :   0.8895
B(  9-C , 20-H ) :   0.9453 B( 10-C , 11-C ) :   1.3650 B( 10-C , 15-C ) :   1.3174
B( 11-C , 12-C ) :   1.4027 B( 11-C , 21-H ) :   0.9746 B( 12-C , 13-C ) :   1.4184
B( 12-C , 22-H ) :   0.9786 B( 13-C , 14-C ) :   1.3878 B( 13-C , 23-H ) :   0.9641
B( 14-C , 15-C ) :   1.3757 B( 14-C , 24-H ) :   0.9581 B( 15-C , 16-O ) :   1.1471
B( 16-O , 17-C ) :   0.9359 B( 17-C , 25-H ) :   0.9617 B( 17-C , 26-H ) :   0.9645
B( 17-C , 27-H ) :   0.9615 B( 18-N , 19-O ) :   1.5516 B( 18-N , 28-O ) :   0.8717
B( 19-O , 30-C ) :   0.1155 B( 30-C , 31-C ) :   2.6407 B( 31-C , 32-H ) :   0.9686

Dispersion correction           -0.036544479
FINAL SINGLE POINT ENERGY      -971.336108171790

DIPOLE MOMENT
-------------
                                X             Y             Z
Electronic contribution:     10.94924      -4.73736       7.60156
Nuclear contribution   :    -13.89762       6.45862      -9.96457
                        -----------------------------------------
Total Dipole Moment    :     -2.94838       1.72127      -2.36301
                        -----------------------------------------
Magnitude (a.u.)       :      4.15205
Magnitude (Debye)      :     10.55368

Dispersion correction in the Hessian             ... done   (      0.7 sec)

VIBRATIONAL FREQUENCIES
-----------------------

Scaling factor for frequencies =  1.000000000  (already applied!)

   0:         0.00 cm**-1
   1:         0.00 cm**-1
   2:         0.00 cm**-1
   3:         0.00 cm**-1
   4:         0.00 cm**-1
   5:         0.00 cm**-1
   6:        16.89 cm**-1
   7:        31.53 cm**-1
   8:        48.13 cm**-1
   9:        63.18 cm**-1
  10:        72.67 cm**-1
  11:        98.42 cm**-1
  12:       101.93 cm**-1
  13:       123.18 cm**-1
  14:       129.94 cm**-1
  15:       150.82 cm**-1
  16:       168.85 cm**-1
  17:       194.95 cm**-1
  18:       214.75 cm**-1
  19:       250.73 cm**-1
  20:       255.42 cm**-1
  21:       282.26 cm**-1
  22:       312.38 cm**-1
  23:       328.96 cm**-1
  24:       348.36 cm**-1
  25:       390.49 cm**-1
  26:       441.91 cm**-1
  27:       471.30 cm**-1
  28:       492.54 cm**-1
  29:       498.12 cm**-1
  30:       532.38 cm**-1
  31:       568.40 cm**-1
  32:       583.37 cm**-1
  33:       606.66 cm**-1
  34:       633.67 cm**-1
  35:       652.53 cm**-1
  36:       693.93 cm**-1
  37:       716.58 cm**-1
  38:       730.63 cm**-1
  39:       741.92 cm**-1
  40:       765.50 cm**-1
  41:       773.07 cm**-1
  42:       785.86 cm**-1
  43:       817.30 cm**-1
  44:       850.41 cm**-1
  45:       876.06 cm**-1
  46:       898.98 cm**-1
  47:       944.32 cm**-1
  48:       956.62 cm**-1
  49:       968.35 cm**-1
  50:       991.59 cm**-1
  51:      1008.53 cm**-1
  52:      1045.04 cm**-1
  53:      1071.35 cm**-1
  54:      1084.30 cm**-1
  55:      1097.74 cm**-1
  56:      1138.72 cm**-1
  57:      1171.46 cm**-1
  58:      1171.76 cm**-1
  59:      1175.40 cm**-1
  60:      1193.67 cm**-1
  61:      1206.00 cm**-1
  62:      1211.98 cm**-1
  63:      1223.65 cm**-1
  64:      1242.29 cm**-1
  65:      1280.53 cm**-1
  66:      1293.08 cm**-1
  67:      1306.75 cm**-1
  68:      1318.91 cm**-1
  69:      1343.83 cm**-1
  70:      1373.67 cm**-1
  71:      1392.34 cm**-1
  72:      1423.15 cm**-1
  73:      1465.70 cm**-1
  74:      1466.50 cm**-1
  75:      1470.08 cm**-1
  76:      1473.32 cm**-1
  77:      1473.78 cm**-1
  78:      1483.28 cm**-1
  79:      1498.64 cm**-1
  80:      1536.65 cm**-1
  81:      1648.64 cm**-1
  82:      1663.24 cm**-1
  83:      1696.47 cm**-1
  84:      1805.29 cm**-1
  85:      2220.67 cm**-1
  86:      3038.54 cm**-1
  87:      3075.34 cm**-1
  88:      3109.88 cm**-1
  89:      3110.43 cm**-1
  90:      3146.71 cm**-1
  91:      3160.81 cm**-1
  92:      3166.98 cm**-1
  93:      3189.91 cm**-1
  94:      3194.55 cm**-1
  95:      3197.25 cm**-1
  96:      3215.32 cm**-1
  97:      3231.05 cm**-1
  98:      3445.48 cm**-1

IR SPECTRUM
-----------

 Mode   freq       eps      Int      T**2         TX        TY        TZ
       cm**-1   L/(mol*cm) km/mol    a.u.
----------------------------------------------------------------------------
  6:     16.89   0.000122    0.62  0.002258  ( 0.038564 -0.007130 -0.026824)
  7:     31.53   0.000492    2.48  0.004864  (-0.043511 -0.016966  0.051798)
  8:     48.13   0.000271    1.37  0.001756  (-0.001790 -0.041718 -0.003543)
  9:     63.18   0.000212    1.07  0.001045  ( 0.004333 -0.031992 -0.001785)
 10:     72.67   0.000120    0.61  0.000514  (-0.005358  0.019231 -0.010756)
 11:     98.42   0.000425    2.15  0.001346  ( 0.019809  0.030212 -0.006421)
 12:    101.93   0.001071    5.41  0.003278  (-0.025313 -0.015266  0.049036)
 13:    123.18   0.000301    1.52  0.000762  (-0.003147 -0.015008  0.022958)
 14:    129.94   0.000138    0.70  0.000332  ( 0.002115  0.014420  0.010935)
 15:    150.82   0.000124    0.63  0.000256  ( 0.010188  0.005230 -0.011187)
 16:    168.85   0.000358    1.81  0.000662  (-0.018905 -0.003563  0.017071)
 17:    194.95   0.000135    0.68  0.000215  (-0.001711  0.014126 -0.003605)
 18:    214.75   0.002378   12.02  0.003455  (-0.039042 -0.039217  0.019822)
 19:    250.73   0.002482   12.54  0.003089  (-0.002590 -0.031447  0.045750)
 20:    255.42   0.000623    3.15  0.000762  (-0.025399 -0.007420 -0.007849)
 21:    282.26   0.000656    3.31  0.000725  ( 0.007161 -0.007430 -0.024867)
 22:    312.38   0.001151    5.82  0.001150  ( 0.028014  0.017272  0.008177)
 23:    328.96   0.000319    1.61  0.000302  (-0.015358 -0.008108 -0.000911)
 24:    348.36   0.004282   21.64  0.003836  ( 0.041059  0.016013  0.043516)
 25:    390.49   0.000659    3.33  0.000527  (-0.007829 -0.012827 -0.017352)
 26:    441.91   0.002800   14.15  0.001977  (-0.042324 -0.007684 -0.011256)
 27:    471.30   0.001557    7.87  0.001031  (-0.002577  0.028169 -0.015187)
 28:    492.54   0.002407   12.17  0.001525  (-0.007048  0.031488  0.022001)
 29:    498.12   0.000370    1.87  0.000232  ( 0.010430  0.009298  0.006062)
 30:    532.38   0.004470   22.59  0.002620  ( 0.038376 -0.000477 -0.033873)
 31:    568.40   0.000565    2.85  0.000310  (-0.006441  0.005326  0.015501)
 32:    583.37   0.001144    5.78  0.000612  (-0.015409  0.014001  0.013362)
 33:    606.66   0.004076   20.60  0.002097  (-0.045125  0.000514 -0.007758)
 34:    633.67   0.006550   33.10  0.003226  (-0.048998 -0.026026 -0.012150)
 35:    652.53   0.015238   77.01  0.007287  (-0.021345  0.053422  0.063070)
 36:    693.93   0.000472    2.39  0.000212  ( 0.006716  0.012721  0.002327)
 37:    716.58   0.004052   20.48  0.001765  ( 0.003669 -0.037635 -0.018298)
 38:    730.63   0.003285   16.60  0.001403  (-0.034855  0.006780 -0.011925)
 39:    741.92   0.010735   54.25  0.004515  ( 0.036046 -0.039009  0.041163)
 40:    765.50   0.015209   76.86  0.006200  (-0.041010 -0.027137  0.061497)
 41:    773.07   0.014243   71.98  0.005750  ( 0.031947  0.061153 -0.031454)
 42:    785.86   0.002291   11.58  0.000910  (-0.002044  0.024038 -0.018099)
 43:    817.30   0.006674   33.73  0.002548  ( 0.009807  0.040664  0.028258)
 44:    850.41   0.004051   20.47  0.001486  ( 0.002258  0.037556 -0.008417)
 45:    876.06   0.001236    6.25  0.000440  ( 0.009540  0.015796 -0.009984)
 46:    898.98   0.003644   18.41  0.001265  ( 0.026566 -0.020481  0.011815)
 47:    944.32   0.060929  307.91  0.020135  ( 0.121894  0.067946  0.025689)
 48:    956.62   0.004412   22.30  0.001439  ( 0.037389  0.004729 -0.004372)
 49:    968.35   0.001666    8.42  0.000537  ( 0.017252 -0.014887  0.004206)
 50:    991.59   0.000047    0.24  0.000015  (-0.002854 -0.001989 -0.001658)
 51:   1008.53   0.006520   32.95  0.002017  (-0.018795 -0.039633 -0.009657)
 52:   1045.04   0.003278   16.56  0.000979  ( 0.006187 -0.021871 -0.021497)
 53:   1071.35   0.013924   70.37  0.004056  ( 0.053906 -0.016216  0.029782)
 54:   1084.30   0.009366   47.33  0.002695  ( 0.020373  0.018833  0.043883)
 55:   1097.74   0.016265   82.20  0.004624  (-0.026473  0.002593 -0.062580)
 56:   1138.72   0.010016   50.62  0.002745  ( 0.035550 -0.006934  0.037857)
 57:   1171.46   0.000194    0.98  0.000052  (-0.003694 -0.005233  0.003277)
 58:   1171.76   0.000158    0.80  0.000042  (-0.001391  0.002242 -0.005920)
 59:   1175.40   0.001711    8.65  0.000454  ( 0.018070 -0.006917  0.008936)
 60:   1193.67   0.001731    8.75  0.000453  ( 0.004035  0.020887  0.000091)
 61:   1206.00   0.003932   19.87  0.001017  ( 0.016155  0.013026  0.024222)
 62:   1211.98   0.002559   12.93  0.000659  ( 0.021469  0.011835  0.007615)
 63:   1223.65   0.002150   10.87  0.000548  (-0.001832 -0.021313  0.009523)
 64:   1242.29   0.040707  205.71  0.010225  (-0.065432 -0.014579 -0.075707)
 65:   1280.53   0.033565  169.62  0.008180  ( 0.022524  0.054964  0.068201)
 66:   1293.08   0.092135  465.61  0.022235  (-0.101414 -0.024293 -0.106585)
 67:   1306.75   0.012444   62.89  0.002972  (-0.007594 -0.026658 -0.046941)
 68:   1318.91   0.014857   75.08  0.003515  ( 0.021416  0.027485  0.047970)
 69:   1343.83   0.000374    1.89  0.000087  ( 0.001041  0.009117 -0.001656)
 70:   1373.67   0.004319   21.83  0.000981  (-0.002685  0.027205  0.015291)
 71:   1392.34   0.031881  161.11  0.007145  (-0.049148 -0.013513 -0.067434)
 72:   1423.15   0.019122   96.63  0.004193  ( 0.030699 -0.044184  0.036032)
 73:   1465.70   0.007072   35.74  0.001506  (-0.013950 -0.013804 -0.033474)
 74:   1466.50   0.003673   18.56  0.000781  (-0.013725 -0.021715  0.011026)
 75:   1470.08   0.010033   50.70  0.002130  ( 0.013352  0.021442  0.038624)
 76:   1473.32   0.003198   16.16  0.000677  (-0.023647  0.008780 -0.006420)
 77:   1473.78   0.003018   15.25  0.000639  (-0.012447 -0.016014  0.015088)
 78:   1483.28   0.005573   28.17  0.001173  (-0.008410 -0.018547 -0.027529)
 79:   1498.64   0.015037   75.99  0.003131  (-0.027691 -0.014144 -0.046521)
 80:   1536.65   0.038215  193.12  0.007761  ( 0.034197  0.035726  0.072904)
 81:   1648.64   0.013642   68.94  0.002582  (-0.033343  0.019537 -0.032997)
 82:   1663.24   0.020852  105.38  0.003912  ( 0.020244  0.010773  0.058194)
 83:   1696.47   0.192003  970.31  0.035319  (-0.054645  0.138450 -0.114736)
 84:   1805.29   0.103202  521.54  0.017840  ( 0.101280 -0.082734  0.027146)
 85:   2220.67   0.001364    6.90  0.000192  ( 0.003652  0.010616 -0.008107)
 86:   3038.54   0.012351   62.42  0.001268  (-0.029121  0.005933 -0.019627)
 87:   3075.34   0.005213   26.34  0.000529  ( 0.001968  0.013902  0.018217)
 88:   3109.88   0.000317    1.60  0.000032  (-0.003671  0.004217 -0.000766)
 89:   3110.43   0.007264   36.71  0.000729  ( 0.013453  0.017008 -0.016080)
 90:   3146.71   0.000343    1.73  0.000034  ( 0.002213  0.000780  0.005338)
 91:   3160.81   0.003240   16.38  0.000320  (-0.010017 -0.012024  0.008661)
 92:   3166.98   0.003748   18.94  0.000369  ( 0.000258  0.013056  0.014099)
 93:   3189.91   0.000264    1.33  0.000026  (-0.004159  0.001661 -0.002404)
 94:   3194.55   0.001818    9.19  0.000178  (-0.011028  0.004170 -0.006213)
 95:   3197.25   0.001679    8.48  0.000164  ( 0.009423 -0.008619 -0.000861)
 96:   3215.32   0.002679   13.54  0.000260  (-0.002139 -0.009819 -0.012612)
 97:   3231.05   0.000330    1.67  0.000032  (-0.004760  0.001666 -0.002540)
 98:   3445.48   0.040673  205.55  0.003684  ( 0.043543  0.038300 -0.017916)

--------------------------
THERMOCHEMISTRY AT 298.15K
--------------------------

Temperature         ... 298.15 K
Pressure            ... 1.00 atm
Total Mass          ... 275.26 AMU

Throughout the following assumptions are being made:
  (1) The electronic state is orbitally nondegenerate
  (2) There are no thermally accessible electronically excited states
  (3) Hindered rotations indicated by low frequency modes are not
      treated as such but are treated as vibrations and this may
      cause some error
  (4) All equations used are the standard statistical mechanics
      equations for an ideal gas
  (5) All vibrations are strictly harmonic

freq.      16.89  E(vib)   ...       0.57
freq.      31.53  E(vib)   ...       0.55
freq.      48.13  E(vib)   ...       0.53
freq.      63.18  E(vib)   ...       0.51
freq.      72.67  E(vib)   ...       0.49
freq.      98.42  E(vib)   ...       0.46
freq.     101.93  E(vib)   ...       0.46
freq.     123.18  E(vib)   ...       0.43
freq.     129.94  E(vib)   ...       0.43
freq.     150.82  E(vib)   ...       0.40
freq.     168.85  E(vib)   ...       0.38
freq.     194.95  E(vib)   ...       0.36
freq.     214.75  E(vib)   ...       0.34
freq.     250.73  E(vib)   ...       0.30
freq.     255.42  E(vib)   ...       0.30
freq.     282.26  E(vib)   ...       0.28
freq.     312.38  E(vib)   ...       0.25
freq.     328.96  E(vib)   ...       0.24
freq.     348.36  E(vib)   ...       0.23
freq.     390.49  E(vib)   ...       0.20
freq.     441.91  E(vib)   ...       0.17
freq.     471.30  E(vib)   ...       0.15
freq.     492.54  E(vib)   ...       0.14
freq.     498.12  E(vib)   ...       0.14
freq.     532.38  E(vib)   ...       0.13
freq.     568.40  E(vib)   ...       0.11
freq.     583.37  E(vib)   ...       0.11
freq.     606.66  E(vib)   ...       0.10
freq.     633.67  E(vib)   ...       0.09
freq.     652.53  E(vib)   ...       0.08
freq.     693.93  E(vib)   ...       0.07
freq.     716.58  E(vib)   ...       0.07
freq.     730.63  E(vib)   ...       0.06
freq.     741.92  E(vib)   ...       0.06
freq.     765.50  E(vib)   ...       0.06
freq.     773.07  E(vib)   ...       0.05
freq.     785.86  E(vib)   ...       0.05
freq.     817.30  E(vib)   ...       0.05
freq.     850.41  E(vib)   ...       0.04
freq.     876.06  E(vib)   ...       0.04
freq.     898.98  E(vib)   ...       0.03
freq.     944.32  E(vib)   ...       0.03
freq.     956.62  E(vib)   ...       0.03
freq.     968.35  E(vib)   ...       0.03
freq.     991.59  E(vib)   ...       0.02
freq.    1008.53  E(vib)   ...       0.02
freq.    1045.04  E(vib)   ...       0.02
freq.    1071.35  E(vib)   ...       0.02
freq.    1084.30  E(vib)   ...       0.02
freq.    1097.74  E(vib)   ...       0.02
freq.    1138.72  E(vib)   ...       0.01
freq.    1171.46  E(vib)   ...       0.01
freq.    1171.76  E(vib)   ...       0.01
freq.    1175.40  E(vib)   ...       0.01
freq.    1193.67  E(vib)   ...       0.01
freq.    1206.00  E(vib)   ...       0.01
freq.    1211.98  E(vib)   ...       0.01
freq.    1223.65  E(vib)   ...       0.01
freq.    1242.29  E(vib)   ...       0.01
freq.    1280.53  E(vib)   ...       0.01
freq.    1293.08  E(vib)   ...       0.01
freq.    1306.75  E(vib)   ...       0.01
freq.    1318.91  E(vib)   ...       0.01
freq.    1343.83  E(vib)   ...       0.01
freq.    1373.67  E(vib)   ...       0.01
freq.    1392.34  E(vib)   ...       0.00
freq.    1423.15  E(vib)   ...       0.00
freq.    1465.70  E(vib)   ...       0.00
freq.    1466.50  E(vib)   ...       0.00
freq.    1470.08  E(vib)   ...       0.00
freq.    1473.32  E(vib)   ...       0.00
freq.    1473.78  E(vib)   ...       0.00
freq.    1483.28  E(vib)   ...       0.00
freq.    1498.64  E(vib)   ...       0.00
freq.    1536.65  E(vib)   ...       0.00
freq.    1648.64  E(vib)   ...       0.00
freq.    1663.24  E(vib)   ...       0.00
freq.    1696.47  E(vib)   ...       0.00
freq.    1805.29  E(vib)   ...       0.00
freq.    2220.67  E(vib)   ...       0.00
freq.    3038.54  E(vib)   ...       0.00
freq.    3075.34  E(vib)   ...       0.00
freq.    3109.88  E(vib)   ...       0.00
freq.    3110.43  E(vib)   ...       0.00
freq.    3146.71  E(vib)   ...       0.00
freq.    3160.81  E(vib)   ...       0.00
freq.    3166.98  E(vib)   ...       0.00
freq.    3189.91  E(vib)   ...       0.00
freq.    3194.55  E(vib)   ...       0.00
freq.    3197.25  E(vib)   ...       0.00
freq.    3215.32  E(vib)   ...       0.00
freq.    3231.05  E(vib)   ...       0.00
freq.    3445.48  E(vib)   ...       0.00

------------
INNER ENERGY
------------

The inner energy is: U= E(el) + E(ZPE) + E(vib) + E(rot) + E(trans)
    E(el)   - is the total energy from the electronic structure calculation
              = E(kin-el) + E(nuc-el) + E(el-el) + E(nuc-nuc)
    E(ZPE)  - the the zero temperature vibrational energy from the frequency calculation
    E(vib)  - the the finite temperature correction to E(ZPE) due to population
              of excited vibrational states
    E(rot)  - is the rotational thermal energy
    E(trans)- is the translational thermal energy

Summary of contributions to the inner energy U:
Electronic energy                ...   -971.33610817 Eh
Zero point energy                ...      0.25181618 Eh     158.02 kcal/mol
Thermal vibrational correction   ...      0.01577469 Eh       9.90 kcal/mol
Thermal rotational correction    ...      0.00141627 Eh       0.89 kcal/mol
Thermal translational correction ...      0.00141627 Eh       0.89 kcal/mol
-----------------------------------------------------------------------
Total thermal energy                   -971.06568475 Eh

Summary of corrections to the electronic energy:
(perhaps to be used in another calculation)
Total thermal correction                  0.01860724 Eh      11.68 kcal/mol
Non-thermal (ZPE) correction              0.25181618 Eh     158.02 kcal/mol
-----------------------------------------------------------------------
Total correction                          0.27042342 Eh     169.69 kcal/mol

--------
ENTHALPY
--------

The enthalpy is H = U + kB*T
                kB is Boltzmann's constant
Total free energy                 ...   -971.06568475 Eh
Thermal Enthalpy correction       ...      0.00094421 Eh       0.59 kcal/mol
-----------------------------------------------------------------------
Total Enthalpy                    ...   -971.06474054 Eh

Note: Only C1 symmetry has been detected, increase convergence thresholds
      if your molecule has a higher symmetry. Symmetry factor of 1.0 is
      used for the rotational entropy correction.

Note: Rotational entropy computed according to Herzberg
Infrared and Raman Spectra, Chapter V,1, Van Nostrand Reinhold, 1945

Rotational constants in cm-1:     0.013626     0.010870     0.007196

                             ****ORCA TERMINATED NORMALLY****
TOTAL RUN TIME: 0 days 0 hours 42 minutes 41 seconds 123 msec
