                         Program Version 5.0.4 -  RELEASE  -
|  1> %pal nprocs 24 end
|  2> %maxcore 3500
|  3> ! PBE0 D3BJ def2-TZVP TightSCF OPT FREQ TightOpt
|  4> ! CPCM(dmso)
|  5> %scf
|  6> MaxIter 800
|  7> end
|  8> %geom
|  9> MaxIter 800
| 10> MaxStep 0.2
| 11> end
| 12> *xyz 0 1
| 13> C        0.308421000      1.834307000     -0.240427000
| 14> C        0.560086000      2.648529000      1.020686000
| 15> O        0.094716000      2.332527000      2.088587000
| 16> O        1.285296000      3.729998000      0.807892000
| 17> C        1.517916000      4.562655000      1.950472000
| 18> H       -0.741344000      1.978794000     -0.515424000
| 19> H        2.118866000      5.392932000      1.589750000
| 20> H        2.055773000      4.005668000      2.717512000
| 21> C        2.030689000      0.313447000     -0.554815000
| 22> C        0.636249000      0.349873000     -0.012340000
| 23> C       -0.276803000     -0.614989000     -0.728213000
| 24> C       -0.409670000     -0.576506000     -2.108804000
| 25> C       -1.251532000     -1.451477000     -2.780308000
| 26> C       -1.966675000     -2.390488000     -2.054707000
| 27> C       -1.845095000     -2.457256000     -0.673711000
| 28> C       -1.003069000     -1.571719000     -0.006803000
| 29> O       -0.825547000     -1.578415000      1.333847000
| 30> C       -1.509960000     -2.555505000      2.093742000
| 31> N        2.255095000      1.372756000     -1.281955000
| 32> O        3.221436000      1.728509000     -1.977574000
| 33> H        0.615832000      0.139561000      1.055200000
| 34> H        0.160609000      0.156131000     -2.670270000
| 35> H       -1.343818000     -1.400118000     -3.858504000
| 36> H       -2.629010000     -3.083971000     -2.560562000
| 37> H       -2.410508000     -3.196626000     -0.122946000
| 38> H       -2.593417000     -2.442926000      1.997500000
| 39> H       -1.218614000     -2.388869000      3.128726000
| 40> H       -1.219833000     -3.565444000      1.789836000
| 41> O        1.117283000      2.242362000     -1.322910000
| 42> H        0.570451000      4.921190000      2.352647000
| 43> C        2.985851000     -0.723402000     -0.398626000
| 44> H        3.919615000     -0.627597000     -0.936753000
| 45> C        2.708935000     -1.810413000      0.377251000
| 46> H        1.772781000     -1.849701000      0.926255000
| 47> N        3.481284000     -2.892064000      0.536684000
| 48> C        3.180289000     -3.868069000      1.557374000
| 49> H        2.147668000     -3.748175000      1.884311000
| 50> H        3.309389000     -4.877219000      1.159848000
| 51> H        3.837781000     -3.752619000      2.426614000
| 52> C        4.770209000     -2.970413000     -0.103050000
| 53> H        5.148191000     -3.988227000     -0.019434000
| 54> H        4.683436000     -2.715627000     -1.161985000
| 55> H        5.493521000     -2.286781000      0.358016000
| 56> **                         ****END OF INPUT****
 Total Charge           Charge          ....    0
 Multiplicity           Mult            ....    1
 Number of Electrons    NEL             ....  170
Dispersion correction           -0.046895592
FINAL SINGLE POINT ENERGY     -1106.477795605379
Dispersion correction            ... done
Dispersion correction           -0.046941741
FINAL SINGLE POINT ENERGY     -1106.477847175183
Dispersion correction            ... done
Dispersion correction           -0.047002303
FINAL SINGLE POINT ENERGY     -1106.477872432174
Dispersion correction            ... done
FINAL SINGLE POINT ENERGY     -1106.477901006880
FINAL SINGLE POINT ENERGY     -1106.477916473513
FINAL SINGLE POINT ENERGY     -1106.477921416012
FINAL SINGLE POINT ENERGY     -1106.477918150817
FINAL SINGLE POINT ENERGY     -1106.477917523275
FINAL SINGLE POINT ENERGY     -1106.477915921175
FINAL SINGLE POINT ENERGY     -1106.477914458909
FINAL SINGLE POINT ENERGY     -1106.478025136865
FINAL SINGLE POINT ENERGY     -1106.478029389658
FINAL SINGLE POINT ENERGY     -1106.478030513658
FINAL SINGLE POINT ENERGY     -1106.478033989495
FINAL SINGLE POINT ENERGY     -1106.478036136257
FINAL SINGLE POINT ENERGY     -1106.478037072028
FINAL SINGLE POINT ENERGY     -1106.478038477075
Dispersion correction           -0.047183281
FINAL SINGLE POINT ENERGY     -1106.478037102267
Dispersion correction            ... done
Dispersion correction           -0.047181854
FINAL SINGLE POINT ENERGY     -1106.478036145999
Dispersion correction            ... done
                    ***********************HURRAY********************

CARTESIAN COORDINATES (ANGSTROEM)
---------------------------------
  C      0.294582    1.888716   -0.330310
  C      0.479566    2.716100    0.933434
  O     -0.177348    2.504982    1.922984
  O      1.394752    3.658231    0.819288
  C      1.605822    4.470302    1.981384
  H     -0.733906    2.033375   -0.666626
  H      2.386329    5.174835    1.707845
  H      1.924876    3.850150    2.818859
  C      2.008592    0.336299   -0.569449
  C      0.603512    0.404617   -0.054124
  C     -0.310664   -0.573203   -0.750875
  C     -0.520583   -0.496882   -2.120804
  C     -1.351396   -1.393505   -2.776984
  C     -1.978285   -2.391470   -2.048039
  C     -1.781380   -2.494417   -0.677872
  C     -0.950012   -1.587846   -0.025287
  O     -0.700229   -1.628536    1.303769
  C     -1.277964   -2.674419    2.062583
  N      2.270848    1.383544   -1.300851
  O      3.262630    1.716438   -1.970529
  H      0.566711    0.222464    1.018704
  H     -0.018616    0.281555   -2.686410
  H     -1.502562   -1.314013   -3.846763
  H     -2.628357   -3.103916   -2.543235
  H     -2.275550   -3.281805   -0.125006
  H     -2.370049   -2.623461    2.038278
  H     -0.930055   -2.531071    3.083400
  H     -0.950173   -3.652120    1.698048
  O      1.154667    2.277664   -1.377326
  H      0.687908    4.996925    2.242047
  C      2.947004   -0.710866   -0.382537
  H      3.889597   -0.630917   -0.907751
  C      2.651252   -1.783680    0.406203
  H      1.707962   -1.808851    0.943037
  N      3.415147   -2.866593    0.593070
  C      3.086269   -3.832961    1.614294
  H      2.049800   -3.699421    1.923206
  H      3.210185   -4.846036    1.225034
  H      3.730644   -3.719735    2.493495
  C      4.712462   -2.963063   -0.026829
  H      5.085372   -3.980073    0.083702
  H      4.641860   -2.730573   -1.092195
  H      5.431551   -2.272141    0.429768

 Multiplicity           Mult            ....    1
 Number of Electrons    NEL             ....  170
 Basis Dimension        Dim             ....  833

ORBITAL ENERGIES
----------------

  NO   OCC          E(Eh)            E(eV)
   0   2.0000     -19.269940      -524.3617
   1   2.0000     -19.269827      -524.3587
   2   2.0000     -19.247618      -523.7543
   3   2.0000     -19.206919      -522.6468
   4   2.0000     -19.196352      -522.3593
   5   2.0000     -14.552110      -395.9830
   6   2.0000     -14.422861      -392.4660
   7   2.0000     -10.362178      -281.9692
   8   2.0000     -10.306958      -280.4666
   9   2.0000     -10.292716      -280.0790
  10   2.0000     -10.279450      -279.7181
  11   2.0000     -10.272521      -279.5295
  12   2.0000     -10.267871      -279.4030
  13   2.0000     -10.267621      -279.3962
  14   2.0000     -10.261457      -279.2285
  15   2.0000     -10.248146      -278.8662
  16   2.0000     -10.246312      -278.8163
  17   2.0000     -10.241350      -278.6813
  18   2.0000     -10.230735      -278.3925
  19   2.0000     -10.230155      -278.3767
  20   2.0000     -10.227033      -278.2917
  21   2.0000     -10.222470      -278.1676
  22   2.0000     -10.216908      -278.0162
  23   2.0000      -1.204033       -32.7634
  24   2.0000      -1.158621       -31.5277
  25   2.0000      -1.109708       -30.1967
  26   2.0000      -1.078530       -29.3483
  27   2.0000      -1.065443       -28.9922
  28   2.0000      -0.995631       -27.0925
  29   2.0000      -0.912234       -24.8231
  30   2.0000      -0.887515       -24.1505
  31   2.0000      -0.833481       -22.6802
  32   2.0000      -0.798752       -21.7351
  33   2.0000      -0.789503       -21.4835
  34   2.0000      -0.778887       -21.1946
  35   2.0000      -0.753968       -20.5165
  36   2.0000      -0.751198       -20.4411
  37   2.0000      -0.720895       -19.6166
  38   2.0000      -0.707923       -19.2636
  39   2.0000      -0.692813       -18.8524
  40   2.0000      -0.630240       -17.1497
  41   2.0000      -0.627513       -17.0755
  42   2.0000      -0.613720       -16.7002
  43   2.0000      -0.594290       -16.1715
  44   2.0000      -0.580724       -15.8023
  45   2.0000      -0.567618       -15.4457
  46   2.0000      -0.553897       -15.0723
  47   2.0000      -0.542189       -14.7537
  48   2.0000      -0.531538       -14.4639
  49   2.0000      -0.517832       -14.0909
  50   2.0000      -0.514709       -14.0059
  51   2.0000      -0.510946       -13.9035
  52   2.0000      -0.502822       -13.6825
  53   2.0000      -0.496923       -13.5220
  54   2.0000      -0.493537       -13.4298
  55   2.0000      -0.489923       -13.3315
  56   2.0000      -0.487369       -13.2620
  57   2.0000      -0.471593       -12.8327
  58   2.0000      -0.466172       -12.6852
  59   2.0000      -0.459010       -12.4903
  60   2.0000      -0.450176       -12.2499
  61   2.0000      -0.433534       -11.7970
  62   2.0000      -0.432850       -11.7784
  63   2.0000      -0.422523       -11.4974
  64   2.0000      -0.415601       -11.3091
  65   2.0000      -0.414218       -11.2714
  66   2.0000      -0.409328       -11.1384
  67   2.0000      -0.404529       -11.0078
  68   2.0000      -0.395088       -10.7509
  69   2.0000      -0.392444       -10.6789
  70   2.0000      -0.387268       -10.5381
  71   2.0000      -0.380876       -10.3642
  72   2.0000      -0.376549       -10.2464
  73   2.0000      -0.365693        -9.9510
  74   2.0000      -0.355517        -9.6741
  75   2.0000      -0.347620        -9.4592
  76   2.0000      -0.343644        -9.3510
  77   2.0000      -0.339949        -9.2505
  78   2.0000      -0.334603        -9.1050
  79   2.0000      -0.302569        -8.2333
  80   2.0000      -0.297981        -8.1085
  81   2.0000      -0.277342        -7.5468
  82   2.0000      -0.266070        -7.2401
  83   2.0000      -0.242150        -6.5892
  84   2.0000      -0.192504        -5.2383
  85   0.0000      -0.027444        -0.7468
  86   0.0000      -0.019473        -0.5299
  87   0.0000       0.000195         0.0053
  88   0.0000       0.004388         0.1194
  89   0.0000       0.044335         1.2064

MULLIKEN ATOMIC CHARGES
-----------------------
   0 C :    0.145473
   1 C :    0.241244
   2 O :   -0.395199
   3 O :   -0.214238
   4 C :   -0.260047
   5 H :    0.168373
   6 H :    0.164851
   7 H :    0.157095
   8 C :    0.017650
   9 C :    0.061717
  10 C :   -0.039894
  11 C :   -0.170580
  12 C :   -0.196545
  13 C :   -0.145865
  14 C :   -0.298736
  15 C :    0.234536
  16 O :   -0.272968
  17 C :   -0.280684
  18 N :    0.378882
  19 O :   -0.537847
  20 H :    0.158564
  21 H :    0.155477
  22 H :    0.146735
  23 H :    0.152645
  24 H :    0.164982
  25 H :    0.159327
  26 H :    0.162763
  27 H :    0.153352
  28 O :   -0.251235
  29 H :    0.156799
  30 C :   -0.470995
  31 H :    0.149996
  32 C :   -0.033115
  33 H :    0.176377
  34 N :   -0.000442
  35 C :   -0.324216
  36 H :    0.159602
  37 H :    0.153908
  38 H :    0.146655
  39 C :   -0.344313
  40 H :    0.166024
  41 H :    0.154703
  42 H :    0.149187
Sum of atomic charges:   -0.0000000

LOEWDIN ATOMIC CHARGES
----------------------
   0 C :   -0.246949
   1 C :   -0.481900
   2 O :    0.083106
   3 O :    0.273206
   4 C :   -0.295211
   5 H :    0.179874
   6 H :    0.123361
   7 H :    0.120643
   8 C :   -0.212177
   9 C :   -0.142111
  10 C :   -0.105319
  11 C :   -0.104543
  12 C :   -0.163808
  13 C :   -0.145115
  14 C :   -0.139184
  15 C :   -0.234217
  16 O :    0.241769
  17 C :   -0.327529
  18 N :    0.054503
  19 O :   -0.211063
  20 H :    0.184171
  21 H :    0.162038
  22 H :    0.152384
  23 H :    0.154772
  24 H :    0.160535
  25 H :    0.118498
  26 H :    0.122284
  27 H :    0.117545
  28 O :    0.168517
  29 H :    0.120652
  30 C :   -0.210592
  31 H :    0.155696
  32 C :   -0.189515
  33 H :    0.162649
  34 N :    0.154210
  35 C :   -0.284082
  36 H :    0.131224
  37 H :    0.126140
  38 H :    0.122801
  39 C :   -0.283089
  40 H :    0.132372
  41 H :    0.129046
  42 H :    0.124409

  Mayer bond orders larger than 0.100000
B(  0-C ,  1-C ) :   0.9571 B(  0-C ,  5-H ) :   0.9213 B(  0-C ,  9-C ) :   0.9289
B(  0-C , 28-O ) :   0.9799 B(  1-C ,  2-O ) :   1.9699 B(  1-C ,  3-O ) :   1.2932
B(  3-O ,  4-C ) :   0.8876 B(  4-C ,  6-H ) :   0.9618 B(  4-C ,  7-H ) :   0.9661
B(  4-C , 29-H ) :   0.9676 B(  8-C ,  9-C ) :   1.0032 B(  8-C , 18-N ) :   1.5578
B(  8-C , 19-O ) :   0.1597 B(  8-C , 30-C ) :   1.2242 B(  9-C , 10-C ) :   0.8124
B(  9-C , 20-H ) :   0.9432 B( 10-C , 11-C ) :   1.3787 B( 10-C , 15-C ) :   1.3211
B( 11-C , 12-C ) :   1.4039 B( 11-C , 21-H ) :   0.9696 B( 12-C , 13-C ) :   1.4027
B( 12-C , 22-H ) :   0.9811 B( 13-C , 14-C ) :   1.3998 B( 13-C , 23-H ) :   0.9658
B( 14-C , 15-C ) :   1.3799 B( 14-C , 24-H ) :   0.9613 B( 15-C , 16-O ) :   1.0922
B( 16-O , 17-C ) :   0.9333 B( 17-C , 25-H ) :   0.9584 B( 17-C , 26-H ) :   0.9647
B( 17-C , 27-H ) :   0.9633 B( 18-N , 19-O ) :   1.3752 B( 18-N , 28-O ) :   0.8019
B( 30-C , 31-H ) :   0.9252 B( 30-C , 32-C ) :   1.5772 B( 32-C , 33-H ) :   0.9023
B( 32-C , 34-N ) :   1.3298 B( 34-N , 35-C ) :   0.9459 B( 34-N , 39-C ) :   0.9506
B( 35-C , 36-H ) :   0.9619 B( 35-C , 37-H ) :   0.9588 B( 35-C , 38-H ) :   0.9589
B( 39-C , 40-H ) :   0.9572 B( 39-C , 41-H ) :   0.9537 B( 39-C , 42-H ) :   0.9568

Dispersion correction           -0.047181198
FINAL SINGLE POINT ENERGY     -1106.478036471788

DIPOLE MOMENT
-------------
                                X             Y             Z
Electronic contribution:     -5.18108      16.17019      -8.13111
Nuclear contribution   :      4.55952     -19.62552      10.53250
                        -----------------------------------------
Total Dipole Moment    :     -0.62156      -3.45534       2.40138
                        -----------------------------------------
Magnitude (a.u.)       :      4.25351
Magnitude (Debye)      :     10.81156

Dispersion correction in the Hessian             ... done   (      0.7 sec)

VIBRATIONAL FREQUENCIES
-----------------------

Scaling factor for frequencies =  1.000000000  (already applied!)

   0:         0.00 cm**-1
   1:         0.00 cm**-1
   2:         0.00 cm**-1
   3:         0.00 cm**-1
   4:         0.00 cm**-1
   5:         0.00 cm**-1
   6:        13.91 cm**-1
   7:        24.55 cm**-1
   8:        28.72 cm**-1
   9:        42.24 cm**-1
  10:        49.91 cm**-1
  11:        60.40 cm**-1
  12:        86.68 cm**-1
  13:        93.52 cm**-1
  14:        95.96 cm**-1
  15:        96.45 cm**-1
  16:       131.27 cm**-1
  17:       142.35 cm**-1
  18:       150.43 cm**-1
  19:       163.83 cm**-1
  20:       180.25 cm**-1
  21:       180.37 cm**-1
  22:       207.11 cm**-1
  23:       235.12 cm**-1
  24:       243.25 cm**-1
  25:       255.66 cm**-1
  26:       274.83 cm**-1
  27:       284.33 cm**-1
  28:       314.37 cm**-1
  29:       324.43 cm**-1
  30:       337.50 cm**-1
  31:       354.45 cm**-1
  32:       410.43 cm**-1
  33:       445.88 cm**-1
  34:       463.58 cm**-1
  35:       491.84 cm**-1
  36:       496.10 cm**-1
  37:       513.90 cm**-1
  38:       557.47 cm**-1
  39:       562.07 cm**-1
  40:       576.75 cm**-1
  41:       597.38 cm**-1
  42:       638.62 cm**-1
  43:       665.70 cm**-1
  44:       715.18 cm**-1
  45:       733.18 cm**-1
  46:       769.34 cm**-1
  47:       775.22 cm**-1
  48:       782.45 cm**-1
  49:       791.79 cm**-1
  50:       816.65 cm**-1
  51:       847.38 cm**-1
  52:       877.54 cm**-1
  53:       889.42 cm**-1
  54:       911.15 cm**-1
  55:       925.81 cm**-1
  56:       944.83 cm**-1
  57:       966.29 cm**-1
  58:       982.85 cm**-1
  59:       995.13 cm**-1
  60:      1028.79 cm**-1
  61:      1061.70 cm**-1
  62:      1071.12 cm**-1
  63:      1084.34 cm**-1
  64:      1088.11 cm**-1
  65:      1102.27 cm**-1
  66:      1117.79 cm**-1
  67:      1128.34 cm**-1
  68:      1139.94 cm**-1
  69:      1156.58 cm**-1
  70:      1171.35 cm**-1
  71:      1171.38 cm**-1
  72:      1175.08 cm**-1
  73:      1197.36 cm**-1
  74:      1207.93 cm**-1
  75:      1211.16 cm**-1
  76:      1218.84 cm**-1
  77:      1236.49 cm**-1
  78:      1252.46 cm**-1
  79:      1285.93 cm**-1
  80:      1297.91 cm**-1
  81:      1303.66 cm**-1
  82:      1316.91 cm**-1
  83:      1323.10 cm**-1
  84:      1331.98 cm**-1
  85:      1360.79 cm**-1
  86:      1387.58 cm**-1
  87:      1395.52 cm**-1
  88:      1416.37 cm**-1
  89:      1439.39 cm**-1
  90:      1454.75 cm**-1
  91:      1458.08 cm**-1
  92:      1463.73 cm**-1
  93:      1465.73 cm**-1
  94:      1466.41 cm**-1
  95:      1466.71 cm**-1
  96:      1469.40 cm**-1
  97:      1472.62 cm**-1
  98:      1474.06 cm**-1
  99:      1483.80 cm**-1
 100:      1489.85 cm**-1
 101:      1498.18 cm**-1
 102:      1526.31 cm**-1
 103:      1537.46 cm**-1
 104:      1649.42 cm**-1
 105:      1663.38 cm**-1
 106:      1673.08 cm**-1
 107:      1733.12 cm**-1
 108:      1786.90 cm**-1
 109:      3020.96 cm**-1
 110:      3027.74 cm**-1
 111:      3037.68 cm**-1
 112:      3075.02 cm**-1
 113:      3093.05 cm**-1
 114:      3097.18 cm**-1
 115:      3109.58 cm**-1
 116:      3116.51 cm**-1
 117:      3138.34 cm**-1
 118:      3150.52 cm**-1
 119:      3157.49 cm**-1
 120:      3159.70 cm**-1
 121:      3166.85 cm**-1
 122:      3186.81 cm**-1
 123:      3187.05 cm**-1
 124:      3194.21 cm**-1
 125:      3196.54 cm**-1
 126:      3214.18 cm**-1
 127:      3223.61 cm**-1
 128:      3231.93 cm**-1

IR SPECTRUM
-----------

 Mode   freq       eps      Int      T**2         TX        TY        TZ
       cm**-1   L/(mol*cm) km/mol    a.u.
----------------------------------------------------------------------------
  6:     13.91   0.001086    5.49  0.024375  ( 0.116214 -0.088857  0.054531)
  7:     24.55   0.000127    0.64  0.001617  (-0.022837 -0.022742 -0.024057)
  8:     28.72   0.000130    0.66  0.001408  (-0.025652 -0.024539 -0.012171)
  9:     42.24   0.000390    1.97  0.002881  ( 0.019334 -0.045900 -0.020014)
 10:     49.91   0.000345    1.74  0.002154  ( 0.001762  0.043462  0.016183)
 11:     60.40   0.000310    1.57  0.001602  (-0.017980 -0.003596  0.035581)
 12:     86.68   0.001486    7.51  0.005350  ( 0.031772  0.017181  0.063601)
 13:     93.52   0.001730    8.74  0.005773  ( 0.014001  0.069725 -0.026741)
 14:     95.96   0.001216    6.15  0.003955  ( 0.050685 -0.033574 -0.016087)
 15:     96.45   0.000857    4.33  0.002772  (-0.026297  0.043727 -0.012979)
 16:    131.27   0.000250    1.26  0.000593  (-0.007764 -0.018992 -0.013134)
 17:    142.35   0.000052    0.26  0.000114  (-0.004519  0.009630  0.001149)
 18:    150.43   0.000824    4.17  0.001710  ( 0.023393 -0.034017 -0.002370)
 19:    163.83   0.000207    1.05  0.000394  ( 0.013067 -0.013916 -0.005440)
 20:    180.25   0.000221    1.12  0.000382  (-0.002324  0.007165  0.018044)
 21:    180.37   0.001700    8.59  0.002942  (-0.049484  0.021818 -0.004112)
 22:    207.11   0.001092    5.52  0.001645  ( 0.008983 -0.038822 -0.007543)
 23:    235.12   0.000224    1.13  0.000298  ( 0.003826  0.016809  0.000636)
 24:    243.25   0.000482    2.44  0.000619  (-0.000226 -0.016832  0.018312)
 25:    255.66   0.001234    6.24  0.001506  ( 0.005454  0.035929 -0.013620)
 26:    274.83   0.003801   19.21  0.004316  ( 0.028978 -0.057888  0.011187)
 27:    284.33   0.001078    5.45  0.001183  (-0.000359 -0.025855  0.022679)
 28:    314.37   0.000661    3.34  0.000656  (-0.015848  0.007050 -0.018850)
 29:    324.43   0.000733    3.70  0.000705  (-0.015987  0.021188  0.000263)
 30:    337.50   0.006250   31.58  0.005779  (-0.040227 -0.060745 -0.021692)
 31:    354.45   0.000973    4.92  0.000857  (-0.013219 -0.022141 -0.013840)
 32:    410.43   0.001818    9.19  0.001382  (-0.011908 -0.005613 -0.034773)
 33:    445.88   0.001122    5.67  0.000785  (-0.006087  0.020337 -0.018290)
 34:    463.58   0.000208    1.05  0.000140  ( 0.000929 -0.010107 -0.006071)
 35:    491.84   0.002387   12.06  0.001515  (-0.036079  0.010468 -0.010170)
 36:    496.10   0.001912    9.66  0.001202  ( 0.010617 -0.032820  0.003552)
 37:    513.90   0.001629    8.23  0.000989  ( 0.015453 -0.027013  0.004574)
 38:    557.47   0.001544    7.80  0.000864  ( 0.026258 -0.012817 -0.003260)
 39:    562.07   0.002159   10.91  0.001199  ( 0.024968  0.012128  0.020689)
 40:    576.75   0.005786   29.24  0.003131  (-0.046406  0.025087 -0.018654)
 41:    597.38   0.000977    4.94  0.000510  ( 0.005049  0.005937 -0.021202)
 42:    638.62   0.000362    1.83  0.000177  (-0.008911 -0.008787  0.004523)
 43:    665.70   0.008262   41.75  0.003873  ( 0.000342 -0.055872 -0.027411)
 44:    715.18   0.007646   38.64  0.003336  (-0.045633  0.002379  0.035332)
 45:    733.18   0.003585   18.12  0.001526  ( 0.037699 -0.007347 -0.007108)
 46:    769.34   0.013624   68.85  0.005526  (-0.065301  0.034167  0.009731)
 47:    775.22   0.020796  105.09  0.008371  ( 0.057558 -0.071083  0.002367)
 48:    782.45   0.003736   18.88  0.001490  (-0.015567 -0.006912 -0.034637)
 49:    791.79   0.009743   49.24  0.003840  (-0.029262 -0.037584 -0.039639)
 50:    816.65   0.008307   41.98  0.003174  (-0.002607  0.027854  0.048905)
 51:    847.38   0.015986   80.79  0.005887  ( 0.041236 -0.064017 -0.009402)
 52:    877.54   0.000519    2.62  0.000185  ( 0.000975  0.013255 -0.002814)
 53:    889.42   0.004908   24.80  0.001722  ( 0.027969  0.025463 -0.017069)
 54:    911.15   0.008298   41.94  0.002842  (-0.003110 -0.047853  0.023291)
 55:    925.81   0.025830  130.53  0.008706  (-0.060407  0.066073  0.026301)
 56:    944.83   0.025360  128.16  0.008376  ( 0.081564 -0.037903 -0.016932)
 57:    966.29   0.000231    1.17  0.000075  ( 0.003601 -0.007795  0.001010)
 58:    982.85   0.015891   80.31  0.005046  (-0.037669 -0.000262 -0.060221)
 59:    995.13   0.000056    0.28  0.000018  (-0.000763  0.004115 -0.000038)
 60:   1028.79   0.003402   17.19  0.001032  ( 0.001410 -0.026536 -0.018048)
 61:   1061.70   0.015485   78.25  0.004551  (-0.015918 -0.045999 -0.046713)
 62:   1071.12   0.013756   69.52  0.004008  (-0.035331 -0.044298  0.028234)
 63:   1084.34   0.010282   51.96  0.002959  ( 0.003804  0.014802 -0.052208)
 64:   1088.11   0.003484   17.61  0.000999  (-0.025016  0.018509  0.005552)
 65:   1102.27   0.010895   55.06  0.003085  (-0.037141  0.010624  0.039903)
 66:   1117.79   0.002144   10.84  0.000599  (-0.003822 -0.011559  0.021223)
 67:   1128.34   0.062567  316.19  0.017304  ( 0.018736 -0.115616  0.059882)
 68:   1139.94   0.022408  113.24  0.006134  (-0.019532 -0.041385  0.063562)
 69:   1156.58   0.007245   36.61  0.001955  (-0.006497  0.040132 -0.017381)
 70:   1171.35   0.000187    0.94  0.000050  ( 0.003089 -0.004773  0.004171)
 71:   1171.38   0.000312    1.58  0.000083  ( 0.006314 -0.006568 -0.000443)
 72:   1175.08   0.001665    8.41  0.000442  (-0.010978 -0.013969  0.011247)
 73:   1197.36   0.000258    1.30  0.000067  ( 0.000248  0.007623 -0.002991)
 74:   1207.93   0.009174   46.36  0.002370  ( 0.019550  0.028495 -0.034291)
 75:   1211.16   0.015322   77.43  0.003948  ( 0.021788  0.038985 -0.044196)
 76:   1218.84   0.007014   35.45  0.001796  (-0.013898 -0.016672  0.036398)
 77:   1236.49   0.003812   19.26  0.000962  (-0.006587  0.004571  0.029963)
 78:   1252.46   0.005748   29.05  0.001432  ( 0.013876  0.034152  0.008556)
 79:   1285.93   0.091359  461.69  0.022170  ( 0.053376  0.079456 -0.114053)
 80:   1297.91   0.012706   64.21  0.003055  ( 0.017330  0.021330  0.047956)
 81:   1303.66   0.063316  319.97  0.015156  (-0.014696 -0.093312  0.078951)
 82:   1316.91   0.063473  320.77  0.015041  (-0.044276 -0.104021 -0.047541)
 83:   1323.10   0.041148  207.94  0.009705  (-0.064172 -0.074680 -0.003157)
 84:   1331.98   0.014227   71.89  0.003333  (-0.040534 -0.040866 -0.004475)
 85:   1360.79   0.012973   65.56  0.002975  ( 0.041084  0.035795  0.002422)
 86:   1387.58   0.005818   29.40  0.001308  ( 0.006192  0.033286 -0.012734)
 87:   1395.52   0.018137   91.66  0.004056  (-0.004981  0.042986 -0.046724)
 88:   1416.37   0.084150  425.26  0.018540  ( 0.044013 -0.117664  0.052520)
 89:   1439.39   0.004609   23.29  0.000999  ( 0.010348 -0.027911  0.010636)
 90:   1454.75   0.008276   41.82  0.001775  ( 0.016420 -0.037718  0.009111)
 91:   1458.08   0.003768   19.04  0.000806  ( 0.016906 -0.002046  0.022726)
 92:   1463.73   0.014117   71.34  0.003010  (-0.004108 -0.039055  0.038308)
 93:   1465.73   0.003882   19.62  0.000827  (-0.020068  0.018112 -0.009785)
 94:   1466.41   0.011642   58.83  0.002477  ( 0.005216  0.049154  0.005844)
 95:   1466.71   0.005444   27.51  0.001158  (-0.003182  0.010344 -0.032267)
 96:   1469.40   0.010445   52.78  0.002218  (-0.019640 -0.034658 -0.025125)
 97:   1472.62   0.003289   16.62  0.000697  ( 0.017537  0.015621 -0.012058)
 98:   1474.06   0.003036   15.34  0.000643  ( 0.020915 -0.014130 -0.002373)
 99:   1483.80   0.004611   23.30  0.000970  (-0.003595 -0.000725 -0.030923)
100:   1489.85   0.001400    7.08  0.000293  (-0.010779  0.010489 -0.008189)
101:   1498.18   0.012606   63.70  0.002626  (-0.002042  0.011499 -0.049893)
102:   1526.31   0.016260   82.17  0.003325  ( 0.050157  0.008668 -0.027086)
103:   1537.46   0.032718  165.34  0.006641  (-0.014337  0.008249 -0.079795)
104:   1649.42   0.010266   51.88  0.001942  ( 0.009587  0.029415 -0.031385)
105:   1663.38   0.008440   42.65  0.001583  (-0.003611 -0.021665 -0.033181)
106:   1673.08   0.298426  1508.13  0.055662  (-0.022427  0.207247 -0.110491)
107:   1733.12   0.064904  328.00  0.011687  ( 0.104630 -0.008951 -0.025670)
108:   1786.90   0.088318  446.32  0.015424  ( 0.083444  0.031872 -0.086285)
109:   3020.96   0.010177   51.43  0.001051  ( 0.030899  0.003258 -0.009267)
110:   3027.74   0.031832  160.86  0.003281  (-0.023086  0.036346 -0.037773)
111:   3037.68   0.012398   62.66  0.001274  (-0.014425 -0.024421  0.021662)
112:   3075.02   0.005317   26.87  0.000540  (-0.004718 -0.015838 -0.016323)
113:   3093.05   0.010047   50.77  0.001014  ( 0.006955  0.020150  0.023648)
114:   3097.18   0.003265   16.50  0.000329  ( 0.008165  0.015134  0.005769)
115:   3109.58   0.007309   36.94  0.000734  (-0.021563  0.015586  0.005067)
116:   3116.51   0.001068    5.40  0.000107  ( 0.006778 -0.004587 -0.006320)
117:   3138.34   0.000373    1.88  0.000037  (-0.005733 -0.001201  0.001665)
118:   3150.52   0.002543   12.85  0.000252  (-0.014234  0.006180  0.003326)
119:   3157.49   0.002916   14.74  0.000288  (-0.005973  0.015246 -0.004479)
120:   3159.70   0.003292   16.64  0.000325  (-0.012402  0.011693 -0.005880)
121:   3166.85   0.003759   19.00  0.000370  (-0.006139 -0.003408 -0.017920)
122:   3186.81   0.000059    0.30  0.000006  (-0.001073  0.001323 -0.001699)
123:   3187.05   0.000674    3.41  0.000066  (-0.006695 -0.004559 -0.000645)
124:   3194.21   0.001977    9.99  0.000193  (-0.009661 -0.008579  0.005124)
125:   3196.54   0.001379    6.97  0.000135  (-0.007265 -0.008875 -0.001749)
126:   3214.18   0.002937   14.84  0.000285  (-0.004853 -0.001252 -0.016126)
127:   3223.61   0.002434   12.30  0.000236  (-0.004266  0.013461 -0.006023)
128:   3231.93   0.000451    2.28  0.000044  (-0.003651 -0.004732  0.002799)

--------------------------
THERMOCHEMISTRY AT 298.15K
--------------------------

Temperature         ... 298.15 K
Pressure            ... 1.00 atm
Total Mass          ... 320.34 AMU

Throughout the following assumptions are being made:
  (1) The electronic state is orbitally nondegenerate
  (2) There are no thermally accessible electronically excited states
  (3) Hindered rotations indicated by low frequency modes are not
      treated as such but are treated as vibrations and this may
      cause some error
  (4) All equations used are the standard statistical mechanics
      equations for an ideal gas
  (5) All vibrations are strictly harmonic

freq.      13.91  E(vib)   ...       0.57
freq.      24.55  E(vib)   ...       0.56
freq.      28.72  E(vib)   ...       0.55
freq.      42.24  E(vib)   ...       0.53
freq.      49.91  E(vib)   ...       0.52
freq.      60.40  E(vib)   ...       0.51
freq.      86.68  E(vib)   ...       0.48
freq.      93.52  E(vib)   ...       0.47
freq.      95.96  E(vib)   ...       0.47
freq.      96.45  E(vib)   ...       0.47
freq.     131.27  E(vib)   ...       0.42
freq.     142.35  E(vib)   ...       0.41
freq.     150.43  E(vib)   ...       0.40
freq.     163.83  E(vib)   ...       0.39
freq.     180.25  E(vib)   ...       0.37
freq.     180.37  E(vib)   ...       0.37
freq.     207.11  E(vib)   ...       0.34
freq.     235.12  E(vib)   ...       0.32
freq.     243.25  E(vib)   ...       0.31
freq.     255.66  E(vib)   ...       0.30
freq.     274.83  E(vib)   ...       0.28
freq.     284.33  E(vib)   ...       0.28
freq.     314.37  E(vib)   ...       0.25
freq.     324.43  E(vib)   ...       0.25
freq.     337.50  E(vib)   ...       0.24
freq.     354.45  E(vib)   ...       0.22
freq.     410.43  E(vib)   ...       0.19
freq.     445.88  E(vib)   ...       0.17
freq.     463.58  E(vib)   ...       0.16
freq.     491.84  E(vib)   ...       0.14
freq.     496.10  E(vib)   ...       0.14
freq.     513.90  E(vib)   ...       0.13
freq.     557.47  E(vib)   ...       0.12
freq.     562.07  E(vib)   ...       0.11
freq.     576.75  E(vib)   ...       0.11
freq.     597.38  E(vib)   ...       0.10
freq.     638.62  E(vib)   ...       0.09
freq.     665.70  E(vib)   ...       0.08
freq.     715.18  E(vib)   ...       0.07
freq.     733.18  E(vib)   ...       0.06
freq.     769.34  E(vib)   ...       0.06
freq.     775.22  E(vib)   ...       0.05
freq.     782.45  E(vib)   ...       0.05
freq.     791.79  E(vib)   ...       0.05
freq.     816.65  E(vib)   ...       0.05
freq.     847.38  E(vib)   ...       0.04
freq.     877.54  E(vib)   ...       0.04
freq.     889.42  E(vib)   ...       0.04
freq.     911.15  E(vib)   ...       0.03
freq.     925.81  E(vib)   ...       0.03
freq.     944.83  E(vib)   ...       0.03
freq.     966.29  E(vib)   ...       0.03
freq.     982.85  E(vib)   ...       0.02
freq.     995.13  E(vib)   ...       0.02
freq.    1028.79  E(vib)   ...       0.02
freq.    1061.70  E(vib)   ...       0.02
freq.    1071.12  E(vib)   ...       0.02
freq.    1084.34  E(vib)   ...       0.02
freq.    1088.11  E(vib)   ...       0.02
freq.    1102.27  E(vib)   ...       0.02
freq.    1117.79  E(vib)   ...       0.01
freq.    1128.34  E(vib)   ...       0.01
freq.    1139.94  E(vib)   ...       0.01
freq.    1156.58  E(vib)   ...       0.01
freq.    1171.35  E(vib)   ...       0.01
freq.    1171.38  E(vib)   ...       0.01
freq.    1175.08  E(vib)   ...       0.01
freq.    1197.36  E(vib)   ...       0.01
freq.    1207.93  E(vib)   ...       0.01
freq.    1211.16  E(vib)   ...       0.01
freq.    1218.84  E(vib)   ...       0.01
freq.    1236.49  E(vib)   ...       0.01
freq.    1252.46  E(vib)   ...       0.01
freq.    1285.93  E(vib)   ...       0.01
freq.    1297.91  E(vib)   ...       0.01
freq.    1303.66  E(vib)   ...       0.01
freq.    1316.91  E(vib)   ...       0.01
freq.    1323.10  E(vib)   ...       0.01
freq.    1331.98  E(vib)   ...       0.01
freq.    1360.79  E(vib)   ...       0.01
freq.    1387.58  E(vib)   ...       0.00
freq.    1395.52  E(vib)   ...       0.00
freq.    1416.37  E(vib)   ...       0.00
freq.    1439.39  E(vib)   ...       0.00
freq.    1454.75  E(vib)   ...       0.00
freq.    1458.08  E(vib)   ...       0.00
freq.    1463.73  E(vib)   ...       0.00
freq.    1465.73  E(vib)   ...       0.00
freq.    1466.41  E(vib)   ...       0.00
freq.    1466.71  E(vib)   ...       0.00
freq.    1469.40  E(vib)   ...       0.00
freq.    1472.62  E(vib)   ...       0.00
freq.    1474.06  E(vib)   ...       0.00
freq.    1483.80  E(vib)   ...       0.00
freq.    1489.85  E(vib)   ...       0.00
freq.    1498.18  E(vib)   ...       0.00
freq.    1526.31  E(vib)   ...       0.00
freq.    1537.46  E(vib)   ...       0.00
freq.    1649.42  E(vib)   ...       0.00
freq.    1663.38  E(vib)   ...       0.00
freq.    1673.08  E(vib)   ...       0.00
freq.    1733.12  E(vib)   ...       0.00
freq.    1786.90  E(vib)   ...       0.00
freq.    3020.96  E(vib)   ...       0.00
freq.    3027.74  E(vib)   ...       0.00
freq.    3037.68  E(vib)   ...       0.00
freq.    3075.02  E(vib)   ...       0.00
freq.    3093.05  E(vib)   ...       0.00
freq.    3097.18  E(vib)   ...       0.00
freq.    3109.58  E(vib)   ...       0.00
freq.    3116.51  E(vib)   ...       0.00
freq.    3138.34  E(vib)   ...       0.00
freq.    3150.52  E(vib)   ...       0.00
freq.    3157.49  E(vib)   ...       0.00
freq.    3159.70  E(vib)   ...       0.00
freq.    3166.85  E(vib)   ...       0.00
freq.    3186.81  E(vib)   ...       0.00
freq.    3187.05  E(vib)   ...       0.00
freq.    3194.21  E(vib)   ...       0.00
freq.    3196.54  E(vib)   ...       0.00
freq.    3214.18  E(vib)   ...       0.00
freq.    3223.61  E(vib)   ...       0.00
freq.    3231.93  E(vib)   ...       0.00

------------
INNER ENERGY
------------

The inner energy is: U= E(el) + E(ZPE) + E(vib) + E(rot) + E(trans)
    E(el)   - is the total energy from the electronic structure calculation
              = E(kin-el) + E(nuc-el) + E(el-el) + E(nuc-nuc)
    E(ZPE)  - the the zero temperature vibrational energy from the frequency calculation
    E(vib)  - the the finite temperature correction to E(ZPE) due to population
              of excited vibrational states
    E(rot)  - is the rotational thermal energy
    E(trans)- is the translational thermal energy

Summary of contributions to the inner energy U:
Electronic energy                ...  -1106.47803647 Eh
Zero point energy                ...      0.34904706 Eh     219.03 kcal/mol
Thermal vibrational correction   ...      0.02051782 Eh      12.88 kcal/mol
Thermal rotational correction    ...      0.00141627 Eh       0.89 kcal/mol
Thermal translational correction ...      0.00141627 Eh       0.89 kcal/mol
-----------------------------------------------------------------------

Rotational constants in cm-1:     0.009495     0.006843     0.005680

                             ****ORCA TERMINATED NORMALLY****
TOTAL RUN TIME: 0 days 1 hours 46 minutes 35 seconds 318 msec
