                         Program Version 5.0.4 -  RELEASE  -
|  1> %pal nprocs 24 end
|  2> %maxcore 3500
|  3> ! PBE0 D3BJ def2-TZVP TightSCF OPT FREQ TightOpt
|  4> ! CPCM(dmso)
|  5> %scf
|  6> MaxIter 800
|  7> end
|  8> %geom
|  9> MaxIter 800
| 10> MaxStep 0.2
| 11> end
| 12> *xyz 0 1
| 13> C        1.187147000     -0.881253000      0.550215000
| 14> C        1.854625000     -2.071694000     -0.114652000
| 15> O        2.961512000     -2.466832000      0.142018000
| 16> O        1.045570000     -2.588603000     -1.020690000
| 17> C        1.555531000     -3.693642000     -1.777378000
| 18> H        0.162773000     -1.129001000      0.849362000
| 19> H        0.764001000     -3.960969000     -2.471936000
| 20> H        1.781402000     -4.528151000     -1.113959000
| 21> C        2.467319000      1.007635000      0.228296000
| 22> C        1.241228000      0.381959000     -0.344876000
| 23> C        0.015230000      1.256156000     -0.264217000
| 24> C       -0.101073000      2.290039000      0.650918000
| 25> C       -1.246697000      3.073359000      0.709304000
| 26> C       -2.287327000      2.815772000     -0.166223000
| 27> C       -2.196937000      1.783420000     -1.090711000
| 28> C       -1.052252000      0.996922000     -1.137019000
| 29> O       -0.884422000     -0.041992000     -1.980562000
| 30> C       -1.910764000     -0.317720000     -2.915465000
| 31> N        2.787180000      0.483223000      1.391062000
| 32> O        3.651093000      0.742974000      2.192591000
| 33> H        1.402251000      0.088068000     -1.382977000
| 34> H        0.716967000      2.493178000      1.334216000
| 35> H       -1.318895000      3.876679000      1.432249000
| 36> H       -3.188381000      3.417805000     -0.134827000
| 37> H       -3.023425000      1.589877000     -1.760806000
| 38> H       -1.565681000     -1.170471000     -3.496300000
| 39> H       -2.077405000      0.535421000     -3.579031000
| 40> H       -2.844758000     -0.575040000     -2.409022000
| 41> O        1.910738000     -0.542333000      1.731058000
| 42> H        2.454268000     -3.395225000     -2.316764000
| 43> C        3.210455000      2.077404000     -0.283416000
| 44> N        3.797471000      2.960935000     -0.737025000
| 45> *
| 46>
| 47>                          ****END OF INPUT****
 Total Charge           Charge          ....    0
 Multiplicity           Mult            ....    1
 Number of Electrons    NEL             ....  144
Dispersion correction           -0.035765928
FINAL SINGLE POINT ENERGY      -987.422981503471
Dispersion correction            ... done
Dispersion correction           -0.035789479
FINAL SINGLE POINT ENERGY      -987.423034943210
Dispersion correction            ... done
Dispersion correction           -0.035789967
FINAL SINGLE POINT ENERGY      -987.423041992541
Dispersion correction            ... done
FINAL SINGLE POINT ENERGY      -987.423057155478
FINAL SINGLE POINT ENERGY      -987.423028365133
FINAL SINGLE POINT ENERGY      -987.422935424619
FINAL SINGLE POINT ENERGY      -987.422885603621
FINAL SINGLE POINT ENERGY      -987.422923239290
FINAL SINGLE POINT ENERGY      -987.422941379961
FINAL SINGLE POINT ENERGY      -987.422936627323
FINAL SINGLE POINT ENERGY      -987.422934350803
FINAL SINGLE POINT ENERGY      -987.422934148341
FINAL SINGLE POINT ENERGY      -987.422932808775
FINAL SINGLE POINT ENERGY      -987.422933706874
FINAL SINGLE POINT ENERGY      -987.422933836968
FINAL SINGLE POINT ENERGY      -987.422933996982
FINAL SINGLE POINT ENERGY      -987.422934253865
Dispersion correction           -0.035929093
FINAL SINGLE POINT ENERGY      -987.422933922307
Dispersion correction            ... done
Dispersion correction           -0.035929185
FINAL SINGLE POINT ENERGY      -987.422932787588
Dispersion correction            ... done
                    ***********************HURRAY********************

CARTESIAN COORDINATES (ANGSTROEM)
---------------------------------
  C      1.067411   -0.898012    0.450563
  C      1.821161   -2.061368   -0.179511
  O      2.896065   -2.446574    0.197582
  O      1.141722   -2.550221   -1.197425
  C      1.775061   -3.606899   -1.932690
  H      0.024409   -1.158230    0.621008
  H      1.076409   -3.872494   -2.720953
  H      1.959279   -4.458768   -1.278775
  C      2.437495    0.938016    0.308289
  C      1.224263    0.401155   -0.373907
  C      0.025964    1.315313   -0.303636
  C     -0.027214    2.425114    0.523448
  C     -1.155777    3.234841    0.566541
  C     -2.244205    2.923850   -0.229945
  C     -2.218344    1.812878   -1.064268
  C     -1.086909    1.006812   -1.100912
  O     -0.967710   -0.098943   -1.862646
  C     -2.064175   -0.476753   -2.675277
  N      2.617845    0.375733    1.483874
  O      3.416516    0.565185    2.365999
  H      1.433563    0.150172   -1.415177
  H      0.823880    2.668533    1.150275
  H     -1.177997    4.099476    1.218434
  H     -3.131604    3.546202   -0.208067
  H     -3.078259    1.580776   -1.677927
  H     -1.757651   -1.386372   -3.187190
  H     -2.294407    0.298555   -3.411091
  H     -2.950640   -0.678697   -2.067919
  O      1.652816   -0.605527    1.715153
  H      2.715277   -3.253326   -2.355496
  C      3.306937    1.944534   -0.126465
  N      4.007563    2.772940   -0.518455

 Multiplicity           Mult            ....    1
 Number of Electrons    NEL             ....  144
 Basis Dimension        Dim             ....  692

ORBITAL ENERGIES
----------------

  NO   OCC          E(Eh)            E(eV)
   0   2.0000     -19.308016      -525.3978
   1   2.0000     -19.274184      -524.4772
   2   2.0000     -19.257369      -524.0196
   3   2.0000     -19.250023      -523.8198
   4   2.0000     -19.215527      -522.8811
   5   2.0000     -14.628731      -398.0680
   6   2.0000     -14.409817      -392.1111
   7   2.0000     -10.370257      -282.1890
   8   2.0000     -10.325515      -280.9716
   9   2.0000     -10.322216      -280.8818
  10   2.0000     -10.295971      -280.1676
  11   2.0000     -10.293948      -280.1126
  12   2.0000     -10.286828      -279.9188
  13   2.0000     -10.275270      -279.6043
  14   2.0000     -10.268531      -279.4209
  15   2.0000     -10.247977      -278.8616
  16   2.0000     -10.236516      -278.5498
  17   2.0000     -10.233172      -278.4588
  18   2.0000     -10.229453      -278.3576
  19   2.0000     -10.224914      -278.2340
  20   2.0000      -1.276180       -34.7266
  21   2.0000      -1.166405       -31.7395
  22   2.0000      -1.133545       -30.8453
  23   2.0000      -1.113184       -30.2913
  24   2.0000      -1.072575       -29.1862
  25   2.0000      -0.970832       -26.4177
  26   2.0000      -0.935201       -25.4481
  27   2.0000      -0.897593       -24.4248
  28   2.0000      -0.857122       -23.3235
  29   2.0000      -0.799917       -21.7669
  30   2.0000      -0.783448       -21.3187
  31   2.0000      -0.762893       -20.7594
  32   2.0000      -0.731986       -19.9183
  33   2.0000      -0.719412       -19.5762
  34   2.0000      -0.706237       -19.2177
  35   2.0000      -0.641733       -17.4624
  36   2.0000      -0.634470       -17.2648
  37   2.0000      -0.617251       -16.7963
  38   2.0000      -0.593952       -16.1622
  39   2.0000      -0.588068       -16.0022
  40   2.0000      -0.564492       -15.3606
  41   2.0000      -0.555221       -15.1083
  42   2.0000      -0.537999       -14.6397
  43   2.0000      -0.529930       -14.4201
  44   2.0000      -0.523874       -14.2553
  45   2.0000      -0.512439       -13.9442
  46   2.0000      -0.506253       -13.7758
  47   2.0000      -0.491443       -13.3729
  48   2.0000      -0.484698       -13.1893
  49   2.0000      -0.468997       -12.7621
  50   2.0000      -0.464044       -12.6273
  51   2.0000      -0.455111       -12.3842
  52   2.0000      -0.450330       -12.2541
  53   2.0000      -0.437016       -11.8918
  54   2.0000      -0.431150       -11.7322
  55   2.0000      -0.416619       -11.3368
  56   2.0000      -0.412971       -11.2375
  57   2.0000      -0.404952       -11.0193
  58   2.0000      -0.397009       -10.8032
  59   2.0000      -0.389766       -10.6061
  60   2.0000      -0.388780       -10.5792
  61   2.0000      -0.381246       -10.3742
  62   2.0000      -0.374830       -10.1997
  63   2.0000      -0.365529        -9.9465
  64   2.0000      -0.349561        -9.5120
  65   2.0000      -0.348136        -9.4733
  66   2.0000      -0.344432        -9.3725
  67   2.0000      -0.338947        -9.2232
  68   2.0000      -0.318472        -8.6661
  69   2.0000      -0.276948        -7.5361
  70   2.0000      -0.275560        -7.4984
  71   2.0000      -0.244754        -6.6601
  72   0.0000      -0.080587        -2.1929
  73   0.0000      -0.021944        -0.5971
  74   0.0000      -0.013523        -0.3680
  75   0.0000      -0.000815        -0.0222
  76   0.0000      -0.000169        -0.0046

MULLIKEN ATOMIC CHARGES
-----------------------
   0 C :    0.112356
   1 C :    0.260489
   2 O :   -0.375156
   3 O :   -0.212646
   4 C :   -0.256168
   5 H :    0.187576
   6 H :    0.166697
   7 H :    0.159502
   8 C :    0.044366
   9 C :    0.114379
  10 C :   -0.051219
  11 C :   -0.169741
  12 C :   -0.206040
  13 C :   -0.147548
  14 C :   -0.285458
  15 C :    0.222720
  16 O :   -0.246993
  17 C :   -0.286139
  18 N :    0.424222
  19 O :   -0.367404
  20 H :    0.157240
  21 H :    0.166789
  22 H :    0.150702
  23 H :    0.154772
  24 H :    0.168457
  25 H :    0.163544
  26 H :    0.153823
  27 H :    0.152439
  28 O :   -0.191922
  29 H :    0.159714
  30 C :   -0.282527
  31 N :   -0.040826
Sum of atomic charges:    0.0000000

LOEWDIN ATOMIC CHARGES
----------------------
   0 C :   -0.217048
   1 C :   -0.487868
   2 O :    0.099315
   3 O :    0.279157
   4 C :   -0.290481
   5 H :    0.182848
   6 H :    0.124301
   7 H :    0.121924
   8 C :   -0.200502
   9 C :   -0.135810
  10 C :   -0.106619
  11 C :   -0.106816
  12 C :   -0.160972
  13 C :   -0.139722
  14 C :   -0.135773
  15 C :   -0.230718
  16 O :    0.254781
  17 C :   -0.321604
  18 N :    0.088727
  19 O :   -0.036958
  20 H :    0.194135
  21 H :    0.164431
  22 H :    0.153547
  23 H :    0.155960
  24 H :    0.161507
  25 H :    0.122281
  26 H :    0.118573
  27 H :    0.118368
  28 O :    0.224797
  29 H :    0.121928
  30 C :   -0.162576
  31 N :    0.046885

  Mayer bond orders larger than 0.100000
B(  0-C ,  1-C ) :   0.9672 B(  0-C ,  5-H ) :   0.9177 B(  0-C ,  9-C ) :   0.9392
B(  0-C , 28-O ) :   0.9532 B(  1-C ,  2-O ) :   1.9991 B(  1-C ,  3-O ) :   1.2572
B(  3-O ,  4-C ) :   0.8804 B(  4-C ,  6-H ) :   0.9616 B(  4-C ,  7-H ) :   0.9654
B(  4-C , 29-H ) :   0.9652 B(  8-C ,  9-C ) :   0.9372 B(  8-C , 18-N ) :   1.4946
B(  8-C , 19-O ) :   0.1688 B(  8-C , 30-C ) :   1.0957 B(  9-C , 10-C ) :   0.8991
B(  9-C , 20-H ) :   0.9400 B( 10-C , 11-C ) :   1.3651 B( 10-C , 15-C ) :   1.3195
B( 11-C , 12-C ) :   1.4037 B( 11-C , 21-H ) :   0.9708 B( 12-C , 13-C ) :   1.4183
B( 12-C , 22-H ) :   0.9782 B( 13-C , 14-C ) :   1.3869 B( 13-C , 23-H ) :   0.9643
B( 14-C , 15-C ) :   1.3772 B( 14-C , 24-H ) :   0.9579 B( 15-C , 16-O ) :   1.1455
B( 16-O , 17-C ) :   0.9338 B( 17-C , 25-H ) :   0.9644 B( 17-C , 26-H ) :   0.9613
B( 17-C , 27-H ) :   0.9615 B( 18-N , 19-O ) :   1.6094 B( 18-N , 28-O ) :   0.9041
B( 30-C , 31-N ) :   3.0139

Dispersion correction           -0.035928990
FINAL SINGLE POINT ENERGY      -987.422933540909

DIPOLE MOMENT
-------------
                                X             Y             Z
Electronic contribution:     12.22661       3.41820       9.79269
Nuclear contribution   :    -16.11367      -5.12400     -12.05576
                        -----------------------------------------
Total Dipole Moment    :     -3.88705      -1.70580      -2.26307
                        -----------------------------------------
Magnitude (a.u.)       :      4.81045
Magnitude (Debye)      :     12.22719

Dispersion correction in the Hessian             ... done   (      0.5 sec)

VIBRATIONAL FREQUENCIES
-----------------------

Scaling factor for frequencies =  1.000000000  (already applied!)

   0:         0.00 cm**-1
   1:         0.00 cm**-1
   2:         0.00 cm**-1
   3:         0.00 cm**-1
   4:         0.00 cm**-1
   5:         0.00 cm**-1
   6:        19.69 cm**-1
   7:        31.76 cm**-1
   8:        50.68 cm**-1
   9:        62.28 cm**-1
  10:        71.82 cm**-1
  11:       101.09 cm**-1
  12:       103.59 cm**-1
  13:       126.72 cm**-1
  14:       129.21 cm**-1
  15:       148.67 cm**-1
  16:       167.78 cm**-1
  17:       197.96 cm**-1
  18:       217.55 cm**-1
  19:       249.69 cm**-1
  20:       254.09 cm**-1
  21:       287.82 cm**-1
  22:       311.43 cm**-1
  23:       339.13 cm**-1
  24:       351.78 cm**-1
  25:       398.06 cm**-1
  26:       456.16 cm**-1
  27:       479.11 cm**-1
  28:       499.95 cm**-1
  29:       525.86 cm**-1
  30:       542.74 cm**-1
  31:       569.07 cm**-1
  32:       586.26 cm**-1
  33:       608.95 cm**-1
  34:       640.96 cm**-1
  35:       706.78 cm**-1
  36:       719.15 cm**-1
  37:       733.40 cm**-1
  38:       764.93 cm**-1
  39:       773.82 cm**-1
  40:       790.26 cm**-1
  41:       818.35 cm**-1
  42:       850.69 cm**-1
  43:       877.04 cm**-1
  44:       897.54 cm**-1
  45:       949.47 cm**-1
  46:       957.72 cm**-1
  47:       968.25 cm**-1
  48:       993.33 cm**-1
  49:      1009.08 cm**-1
  50:      1041.13 cm**-1
  51:      1070.74 cm**-1
  52:      1083.69 cm**-1
  53:      1089.67 cm**-1
  54:      1140.39 cm**-1
  55:      1171.76 cm**-1
  56:      1171.90 cm**-1
  57:      1176.04 cm**-1
  58:      1194.17 cm**-1
  59:      1205.83 cm**-1
  60:      1211.34 cm**-1
  61:      1225.26 cm**-1
  62:      1239.70 cm**-1
  63:      1280.97 cm**-1
  64:      1296.53 cm**-1
  65:      1309.10 cm**-1
  66:      1319.99 cm**-1
  67:      1348.12 cm**-1
  68:      1372.47 cm**-1
  69:      1391.82 cm**-1
  70:      1438.63 cm**-1
  71:      1465.37 cm**-1
  72:      1466.22 cm**-1
  73:      1470.67 cm**-1
  74:      1472.67 cm**-1
  75:      1474.01 cm**-1
  76:      1482.80 cm**-1
  77:      1499.60 cm**-1
  78:      1536.68 cm**-1
  79:      1649.37 cm**-1
  80:      1664.24 cm**-1
  81:      1693.26 cm**-1
  82:      1808.04 cm**-1
  83:      2349.01 cm**-1
  84:      3040.16 cm**-1
  85:      3077.12 cm**-1
  86:      3112.81 cm**-1
  87:      3112.86 cm**-1
  88:      3158.39 cm**-1
  89:      3163.68 cm**-1
  90:      3168.60 cm**-1
  91:      3191.80 cm**-1
  92:      3197.31 cm**-1
  93:      3198.82 cm**-1
  94:      3217.05 cm**-1
  95:      3232.35 cm**-1

IR SPECTRUM
-----------

 Mode   freq       eps      Int      T**2         TX        TY        TZ
       cm**-1   L/(mol*cm) km/mol    a.u.
----------------------------------------------------------------------------
  6:     19.69   0.000212    1.07  0.003358  (-0.024143 -0.027340  0.045024)
  7:     31.76   0.000318    1.61  0.003125  ( 0.034723  0.042376 -0.011119)
  8:     50.68   0.000097    0.49  0.000594  ( 0.016489  0.008424 -0.015854)
  9:     62.28   0.000198    1.00  0.000994  (-0.029709  0.009571  0.004457)
 10:     71.82   0.000605    3.06  0.002627  ( 0.021585 -0.043292 -0.016940)
 11:    101.09   0.000634    3.20  0.001957  ( 0.000944 -0.025861  0.035884)
 12:    103.59   0.000683    3.45  0.002056  ( 0.026994  0.013589 -0.033806)
 13:    126.72   0.001142    5.77  0.002812  ( 0.043004 -0.000286  0.031019)
 14:    129.21   0.000157    0.79  0.000379  (-0.017891  0.004958  0.005818)
 15:    148.67   0.000100    0.50  0.000209  (-0.005795 -0.007762  0.010754)
 16:    167.78   0.001441    7.28  0.002681  ( 0.010646 -0.003610 -0.050539)
 17:    197.96   0.000066    0.33  0.000104  (-0.008166  0.002761 -0.005406)
 18:    217.55   0.002957   14.94  0.004242  ( 0.035379  0.054031  0.008415)
 19:    249.69   0.001645    8.31  0.002055  ( 0.015956  0.021582 -0.036538)
 20:    254.09   0.001427    7.21  0.001753  (-0.011908 -0.011902 -0.038332)
 21:    287.82   0.000265    1.34  0.000288  ( 0.001819 -0.016472  0.003625)
 22:    311.43   0.001057    5.34  0.001059  (-0.013672 -0.029473 -0.001912)
 23:    339.13   0.001995   10.08  0.001836  ( 0.038154 -0.019366  0.002315)
 24:    351.78   0.003927   19.84  0.003483  ( 0.019677  0.041682  0.036862)
 25:    398.06   0.001634    8.26  0.001281  (-0.019742  0.027960  0.010475)
 26:    456.16   0.001211    6.12  0.000829  (-0.010943 -0.020796  0.016623)
 27:    479.11   0.000380    1.92  0.000248  (-0.001542 -0.008416  0.013214)
 28:    499.95   0.001667    8.42  0.001041  (-0.029177  0.013734 -0.000794)
 29:    525.86   0.001874    9.47  0.001112  (-0.017991 -0.007924  0.026937)
 30:    542.74   0.001787    9.03  0.001028  (-0.017095 -0.007895  0.025944)
 31:    569.07   0.000431    2.18  0.000236  ( 0.008546 -0.004962 -0.011776)
 32:    586.26   0.001602    8.10  0.000853  ( 0.018607 -0.016023 -0.015808)
 33:    608.95   0.003183   16.09  0.001631  ( 0.038694  0.011416  0.001954)
 34:    640.96   0.005802   29.32  0.002825  ( 0.031517  0.042793  0.000384)
 35:    706.78   0.000177    0.89  0.000078  ( 0.005477  0.004495  0.005268)
 36:    719.15   0.005968   30.16  0.002590  (-0.021297  0.046215  0.000671)
 37:    733.40   0.001894    9.57  0.000806  (-0.026608 -0.004854 -0.008630)
 38:    764.93   0.016914   85.48  0.006900  (-0.044320 -0.020396  0.067232)
 39:    773.82   0.012181   61.56  0.004912  ( 0.013629  0.051847 -0.045150)
 40:    790.26   0.002913   14.72  0.001150  (-0.010860  0.019662 -0.025409)
 41:    818.35   0.007300   36.89  0.002784  (-0.011159  0.050620  0.009829)
 42:    850.69   0.002150   10.87  0.000789  ( 0.006646 -0.022741  0.015079)
 43:    877.04   0.001331    6.73  0.000474  (-0.006875 -0.014861  0.014333)
 44:    897.54   0.003650   18.45  0.001269  ( 0.029608  0.002105  0.019700)
 45:    949.47   0.055193  278.93  0.018140  (-0.080861 -0.106006 -0.019098)
 46:    957.72   0.004896   24.74  0.001595  ( 0.035657  0.017910 -0.001792)
 47:    968.25   0.001611    8.14  0.000519  (-0.019728  0.007600 -0.008510)
 48:    993.33   0.000079    0.40  0.000025  (-0.002231 -0.003871 -0.002176)
 49:   1009.08   0.010473   52.93  0.003239  (-0.012164 -0.055565 -0.001889)
 50:   1041.13   0.003348   16.92  0.001003  (-0.018749  0.022169  0.012667)
 51:   1070.74   0.015830   80.00  0.004614  ( 0.049672  0.019659  0.041950)
 52:   1083.69   0.009293   46.96  0.002676  ( 0.000725  0.035582  0.037541)
 53:   1089.67   0.011765   59.46  0.003369  (-0.003377 -0.012619 -0.056558)
 54:   1140.39   0.010015   50.61  0.002740  ( 0.029303  0.015954  0.040340)
 55:   1171.76   0.000185    0.93  0.000049  ( 0.002170  0.003436 -0.005718)
 56:   1171.90   0.000096    0.48  0.000026  (-0.001418 -0.004133 -0.002538)
 57:   1176.04   0.001531    7.74  0.000406  (-0.016113 -0.004006 -0.011426)
 58:   1194.17   0.002729   13.79  0.000713  ( 0.002404 -0.023731  0.012006)
 59:   1205.83   0.004275   21.61  0.001106  (-0.005341 -0.024944 -0.021347)
 60:   1211.34   0.003190   16.12  0.000822  ( 0.015763  0.023923  0.000954)
 61:   1225.26   0.004329   21.88  0.001102  (-0.007335 -0.027767  0.016663)
 62:   1239.70   0.029614  149.66  0.007454  ( 0.032608  0.045407  0.065798)
 63:   1280.97   0.039094  197.57  0.009524  (-0.014749  0.079750  0.054280)
 64:   1296.53   0.089047  450.01  0.021433  (-0.059817 -0.094463 -0.094507)
 65:   1309.10   0.005780   29.21  0.001378  ( 0.010809 -0.024395 -0.025803)
 66:   1319.99   0.015436   78.01  0.003649  ( 0.001588  0.049391  0.034747)
 67:   1348.12   0.000399    2.02  0.000092  (-0.002274 -0.003759 -0.008549)
 68:   1372.47   0.007793   39.38  0.001772  ( 0.013215 -0.028440 -0.028081)
 69:   1391.82   0.031677  160.08  0.007102  ( 0.026491  0.053078  0.059862)
 70:   1438.63   0.008989   45.43  0.001950  ( 0.040615  0.011090  0.013313)
 71:   1465.37   0.007717   39.00  0.001643  (-0.005670 -0.029995 -0.026674)
 72:   1466.22   0.003682   18.61  0.000784  ( 0.009040  0.020546 -0.016729)
 73:   1470.67   0.011217   56.68  0.002380  (-0.003008  0.036547  0.032177)
 74:   1472.67   0.002844   14.37  0.000603  ( 0.022743 -0.001583  0.009106)
 75:   1474.01   0.003014   15.23  0.000638  (-0.009270 -0.013859  0.018979)
 76:   1482.80   0.005440   27.49  0.001145  ( 0.002583 -0.027708 -0.019246)
 77:   1499.60   0.014625   73.91  0.003043  (-0.014539 -0.037337 -0.037921)
 78:   1536.68   0.040221  203.26  0.008168  ( 0.011101  0.067214  0.059389)
 79:   1649.37   0.014389   72.72  0.002723  (-0.032205 -0.002379 -0.040984)
 80:   1664.24   0.024393  123.27  0.004574  ( 0.005525  0.032898  0.058831)
 81:   1693.26   0.220813  1115.90  0.040695  (-0.071321  0.075727 -0.172841)
 82:   1808.04   0.102651  518.76  0.017717  ( 0.110374 -0.025797  0.069781)
 83:   2349.01   0.028442  143.73  0.003778  (-0.029964 -0.042855  0.032311)
 84:   3040.16   0.012192   61.62  0.001252  ( 0.025805  0.011399  0.021347)
 85:   3077.12   0.004819   24.36  0.000489  ( 0.007046 -0.016935 -0.012342)
 86:   3112.81   0.006864   34.69  0.000688  (-0.009621 -0.014129  0.019898)
 87:   3112.86   0.000540    2.73  0.000054  ( 0.003243 -0.002496  0.006117)
 88:   3158.39   0.000386    1.95  0.000038  ( 0.003236 -0.001430 -0.005060)
 89:   3163.68   0.002889   14.60  0.000285  ( 0.007063  0.011822 -0.009760)
 90:   3168.60   0.003570   18.04  0.000352  ( 0.006211 -0.015577 -0.008386)
 91:   3191.80   0.000307    1.55  0.000030  ( 0.004277  0.000728  0.003348)
 92:   3197.31   0.001609    8.13  0.000157  ( 0.008954  0.002159  0.008497)
 93:   3198.82   0.001699    8.59  0.000166  (-0.011680  0.004768 -0.002568)
 94:   3217.05   0.002434   12.30  0.000236  ( 0.002686 -0.012726 -0.008181)
 95:   3232.35   0.000296    1.50  0.000029  (-0.004245 -0.000950 -0.003114)

--------------------------
THERMOCHEMISTRY AT 298.15K
--------------------------

Temperature         ... 298.15 K
Pressure            ... 1.00 atm
Total Mass          ... 276.25 AMU

Throughout the following assumptions are being made:
  (1) The electronic state is orbitally nondegenerate
  (2) There are no thermally accessible electronically excited states
  (3) Hindered rotations indicated by low frequency modes are not
      treated as such but are treated as vibrations and this may
      cause some error
  (4) All equations used are the standard statistical mechanics
      equations for an ideal gas
  (5) All vibrations are strictly harmonic

freq.      19.69  E(vib)   ...       0.56
freq.      31.76  E(vib)   ...       0.55
freq.      50.68  E(vib)   ...       0.52
freq.      62.28  E(vib)   ...       0.51
freq.      71.82  E(vib)   ...       0.50
freq.     101.09  E(vib)   ...       0.46
freq.     103.59  E(vib)   ...       0.46
freq.     126.72  E(vib)   ...       0.43
freq.     129.21  E(vib)   ...       0.43
freq.     148.67  E(vib)   ...       0.41
freq.     167.78  E(vib)   ...       0.38
freq.     197.96  E(vib)   ...       0.35
freq.     217.55  E(vib)   ...       0.33
freq.     249.69  E(vib)   ...       0.31
freq.     254.09  E(vib)   ...       0.30
freq.     287.82  E(vib)   ...       0.27
freq.     311.43  E(vib)   ...       0.25
freq.     339.13  E(vib)   ...       0.23
freq.     351.78  E(vib)   ...       0.23
freq.     398.06  E(vib)   ...       0.20
freq.     456.16  E(vib)   ...       0.16
freq.     479.11  E(vib)   ...       0.15
freq.     499.95  E(vib)   ...       0.14
freq.     525.86  E(vib)   ...       0.13
freq.     542.74  E(vib)   ...       0.12
freq.     569.07  E(vib)   ...       0.11
freq.     586.26  E(vib)   ...       0.11
freq.     608.95  E(vib)   ...       0.10
freq.     640.96  E(vib)   ...       0.09
freq.     706.78  E(vib)   ...       0.07
freq.     719.15  E(vib)   ...       0.07
freq.     733.40  E(vib)   ...       0.06
freq.     764.93  E(vib)   ...       0.06
freq.     773.82  E(vib)   ...       0.05
freq.     790.26  E(vib)   ...       0.05
freq.     818.35  E(vib)   ...       0.05
freq.     850.69  E(vib)   ...       0.04
freq.     877.04  E(vib)   ...       0.04
freq.     897.54  E(vib)   ...       0.03
freq.     949.47  E(vib)   ...       0.03
freq.     957.72  E(vib)   ...       0.03
freq.     968.25  E(vib)   ...       0.03
freq.     993.33  E(vib)   ...       0.02
freq.    1009.08  E(vib)   ...       0.02
freq.    1041.13  E(vib)   ...       0.02
freq.    1070.74  E(vib)   ...       0.02
freq.    1083.69  E(vib)   ...       0.02
freq.    1089.67  E(vib)   ...       0.02
freq.    1140.39  E(vib)   ...       0.01
freq.    1171.76  E(vib)   ...       0.01
freq.    1171.90  E(vib)   ...       0.01
freq.    1176.04  E(vib)   ...       0.01
freq.    1194.17  E(vib)   ...       0.01
freq.    1205.83  E(vib)   ...       0.01
freq.    1211.34  E(vib)   ...       0.01
freq.    1225.26  E(vib)   ...       0.01
freq.    1239.70  E(vib)   ...       0.01
freq.    1280.97  E(vib)   ...       0.01
freq.    1296.53  E(vib)   ...       0.01
freq.    1309.10  E(vib)   ...       0.01
freq.    1319.99  E(vib)   ...       0.01
freq.    1348.12  E(vib)   ...       0.01
freq.    1372.47  E(vib)   ...       0.01
freq.    1391.82  E(vib)   ...       0.00
freq.    1438.63  E(vib)   ...       0.00
freq.    1465.37  E(vib)   ...       0.00
freq.    1466.22  E(vib)   ...       0.00
freq.    1470.67  E(vib)   ...       0.00
freq.    1472.67  E(vib)   ...       0.00
freq.    1474.01  E(vib)   ...       0.00
freq.    1482.80  E(vib)   ...       0.00
freq.    1499.60  E(vib)   ...       0.00
freq.    1536.68  E(vib)   ...       0.00
freq.    1649.37  E(vib)   ...       0.00
freq.    1664.24  E(vib)   ...       0.00
freq.    1693.26  E(vib)   ...       0.00
freq.    1808.04  E(vib)   ...       0.00
freq.    2349.01  E(vib)   ...       0.00
freq.    3040.16  E(vib)   ...       0.00
freq.    3077.12  E(vib)   ...       0.00
freq.    3112.81  E(vib)   ...       0.00
freq.    3112.86  E(vib)   ...       0.00
freq.    3158.39  E(vib)   ...       0.00
freq.    3163.68  E(vib)   ...       0.00
freq.    3168.60  E(vib)   ...       0.00
freq.    3191.80  E(vib)   ...       0.00
freq.    3197.31  E(vib)   ...       0.00
freq.    3198.82  E(vib)   ...       0.00
freq.    3217.05  E(vib)   ...       0.00
freq.    3232.35  E(vib)   ...       0.00

------------
INNER ENERGY
------------

The inner energy is: U= E(el) + E(ZPE) + E(vib) + E(rot) + E(trans)
    E(el)   - is the total energy from the electronic structure calculation
              = E(kin-el) + E(nuc-el) + E(el-el) + E(nuc-nuc)
    E(ZPE)  - the the zero temperature vibrational energy from the frequency calculation
    E(vib)  - the the finite temperature correction to E(ZPE) due to population
              of excited vibrational states
    E(rot)  - is the rotational thermal energy
    E(trans)- is the translational thermal energy

Summary of contributions to the inner energy U:
Electronic energy                ...   -987.42293354 Eh
Zero point energy                ...      0.24153560 Eh     151.57 kcal/mol
Thermal vibrational correction   ...      0.01542609 Eh       9.68 kcal/mol
Thermal rotational correction    ...      0.00141627 Eh       0.89 kcal/mol
Thermal translational correction ...      0.00141627 Eh       0.89 kcal/mol
-----------------------------------------------------------------------
Total thermal energy                   -987.16313931 Eh

Summary of corrections to the electronic energy:
(perhaps to be used in another calculation)
Total thermal correction                  0.01825864 Eh      11.46 kcal/mol
Non-thermal (ZPE) correction              0.24153560 Eh     151.57 kcal/mol
-----------------------------------------------------------------------
Total correction                          0.25979423 Eh     163.02 kcal/mol

--------
ENTHALPY
--------

The enthalpy is H = U + kB*T
                kB is Boltzmann's constant
Total free energy                 ...   -987.16313931 Eh
Thermal Enthalpy correction       ...      0.00094421 Eh       0.59 kcal/mol
-----------------------------------------------------------------------
Total Enthalpy                    ...   -987.16219510 Eh

Note: Only C1 symmetry has been detected, increase convergence thresholds
      if your molecule has a higher symmetry. Symmetry factor of 1.0 is
      used for the rotational entropy correction.

Note: Rotational entropy computed according to Herzberg
Infrared and Raman Spectra, Chapter V,1, Van Nostrand Reinhold, 1945
Point Group:  C1, Symmetry Number:   1
Rotational constants in cm-1:     0.013838     0.010790     0.007182

                             ****ORCA TERMINATED NORMALLY****
TOTAL RUN TIME: 0 days 0 hours 50 minutes 38 seconds 643 msec
