                         Program Version 5.0.4 -  RELEASE  -
|  1> %pal nprocs 24 end
|  2> %maxcore 3500
|  3> ! PBE0 D3BJ def2-TZVP TightSCF OPT FREQ TightOpt
|  4> ! CPCM(dmso)
|  5> %scf
|  6> MaxIter 800
|  7> end
|  8> %geom
|  9> MaxIter 800
| 10> MaxStep 0.2
| 11> end
| 12> *xyz 0 1
| 13> C        1.317056000      0.709957000     -0.572901000
| 14> C        2.155186000      1.754612000      0.139411000
| 15> O        3.325850000      1.953231000     -0.057872000
| 16> O        1.413197000      2.396988000      1.027144000
| 17> C        2.087631000      3.362089000      1.842163000
| 18> H        0.346982000      1.132607000     -0.850550000
| 19> H        2.877358000      2.879087000      2.417826000
| 20> H        1.327967000      3.768830000      2.504110000
| 21> C        2.292590000     -1.373532000     -0.266419000
| 22> C        1.169792000     -0.565714000      0.289124000
| 23> C       -0.176584000     -1.234608000      0.159247000
| 24> C       -0.451161000     -2.132883000     -0.859248000
| 25> C       -1.699468000     -2.729499000     -0.979079000
| 26> C       -2.685685000     -2.423270000     -0.057101000
| 27> C       -2.437026000     -1.526104000      0.973119000
| 28> C       -1.188368000     -0.923633000      1.079016000
| 29> O       -0.867051000     -0.022693000      2.032624000
| 30> C       -1.830599000      0.274148000      3.024983000
| 31> N        2.696021000     -0.880487000     -1.405754000
| 32> O        3.531375000     -1.243982000     -2.223112000
| 33> H        1.344371000     -0.324811000      1.338680000
| 34> H        0.330017000     -2.378082000     -1.571317000
| 35> H       -1.893455000     -3.429027000     -1.783193000
| 36> H       -3.665941000     -2.880099000     -0.133771000
| 37> H       -3.220920000     -1.292228000      1.680565000
| 38> H       -1.361807000      0.994588000      3.692225000
| 39> H       -2.105500000     -0.622616000      3.587525000
| 40> H       -2.727692000      0.716606000      2.583348000
| 41> O        1.977725000      0.288853000     -1.753938000
| 42> H        2.513158000      4.148763000      1.219347000
| 43> C        2.885104000     -2.559435000      0.277884000
| 44> H        3.677916000     -3.007265000     -0.312312000
| 45> C        2.506622000     -3.103027000      1.437253000
| 46> H        1.713780000     -2.674463000      2.040368000
| 47> H        2.986344000     -3.999687000      1.808932000
| 48> *
| 49>
| 50>                          ****END OF INPUT****
 Total Charge           Charge          ....    0
 Multiplicity           Mult            ....    1
 Number of Electrons    NEL             ....  146
Dispersion correction           -0.038767733
FINAL SINGLE POINT ENERGY      -972.596375157346
Dispersion correction            ... done
Dispersion correction           -0.038793818
FINAL SINGLE POINT ENERGY      -972.596412205110
Dispersion correction            ... done
Dispersion correction           -0.038785563
FINAL SINGLE POINT ENERGY      -972.596431494845
Dispersion correction            ... done
FINAL SINGLE POINT ENERGY      -972.596444272571
FINAL SINGLE POINT ENERGY      -972.596449565002
FINAL SINGLE POINT ENERGY      -972.596453778459
FINAL SINGLE POINT ENERGY      -972.596455307935
Dispersion correction           -0.038809299
FINAL SINGLE POINT ENERGY      -972.596455762396
Dispersion correction            ... done
Dispersion correction           -0.038809303
FINAL SINGLE POINT ENERGY      -972.596455781904
Dispersion correction            ... done
                    ***********************HURRAY********************

CARTESIAN COORDINATES (ANGSTROEM)
---------------------------------
  C      1.289330    0.707108   -0.539921
  C      2.136402    1.744424    0.178053
  O      3.312505    1.913510   -0.010974
  O      1.401867    2.400291    1.059377
  C      2.093937    3.342485    1.888047
  H      0.316052    1.124139   -0.794514
  H      2.864235    2.833788    2.467828
  H      1.338512    3.764774    2.544937
  C      2.293457   -1.369090   -0.287426
  C      1.169932   -0.586425    0.300858
  C     -0.173062   -1.262285    0.175964
  C     -0.439342   -2.189129   -0.818849
  C     -1.689429   -2.783270   -0.935198
  C     -2.685705   -2.443760   -0.035473
  C     -2.445422   -1.516638    0.971072
  C     -1.193167   -0.920258    1.075864
  O     -0.872964    0.001562    2.008624
  C     -1.855436    0.365031    2.960080
  N      2.671371   -0.850666   -1.424127
  O      3.500283   -1.183095   -2.258950
  H      1.358290   -0.362034    1.352026
  H      0.348560   -2.457351   -1.514842
  H     -1.877168   -3.506555   -1.719432
  H     -3.666408   -2.900112   -0.109002
  H     -3.234937   -1.261430    1.665018
  H     -1.382692    1.093901    3.615125
  H     -2.176245   -0.500464    3.546551
  H     -2.724623    0.818895    2.475545
  O      1.928465    0.315397   -1.740587
  H      2.546658    4.120954    1.274356
  C      2.912802   -2.554861    0.226514
  H      3.702687   -2.979168   -0.384584
  C      2.561848   -3.124994    1.381737
  H      1.772483   -2.720883    2.005945
  H      3.061709   -4.020579    1.728686

 Multiplicity           Mult            ....    1
 Number of Electrons    NEL             ....  146
 Basis Dimension        Dim             ....  710

ORBITAL ENERGIES
----------------

  NO   OCC          E(Eh)            E(eV)
   0   2.0000     -19.285108      -524.7745
   1   2.0000     -19.270427      -524.3750
   2   2.0000     -19.247452      -523.7498
   3   2.0000     -19.223695      -523.1033
   4   2.0000     -19.211215      -522.7638
   5   2.0000     -14.587887      -396.9566
   6   2.0000     -10.364458      -282.0313
   7   2.0000     -10.312886      -280.6279
   8   2.0000     -10.293055      -280.0883
   9   2.0000     -10.287540      -279.9382
  10   2.0000     -10.273551      -279.5575
  11   2.0000     -10.270037      -279.4619
  12   2.0000     -10.267537      -279.3939
  13   2.0000     -10.246400      -278.8187
  14   2.0000     -10.242733      -278.7189
  15   2.0000     -10.232125      -278.4303
  16   2.0000     -10.231861      -278.4231
  17   2.0000     -10.230842      -278.3954
  18   2.0000     -10.227301      -278.2990
  19   2.0000     -10.222709      -278.1741
  20   2.0000      -1.235939       -33.6316
  21   2.0000      -1.160759       -31.5859
  22   2.0000      -1.110300       -30.2128
  23   2.0000      -1.103552       -30.0292
  24   2.0000      -1.067286       -29.0423
  25   2.0000      -0.926266       -25.2050
  26   2.0000      -0.891647       -24.2629
  27   2.0000      -0.843839       -22.9620
  28   2.0000      -0.808536       -22.0014
  29   2.0000      -0.793572       -21.5942
  30   2.0000      -0.780215       -21.2307
  31   2.0000      -0.754565       -20.5328
  32   2.0000      -0.722706       -19.6658
  33   2.0000      -0.703647       -19.1472
  34   2.0000      -0.660805       -17.9814
  35   2.0000      -0.632294       -17.2056
  36   2.0000      -0.619322       -16.8526
  37   2.0000      -0.612394       -16.6641
  38   2.0000      -0.581503       -15.8235
  39   2.0000      -0.577979       -15.7276
  40   2.0000      -0.556689       -15.1483
  41   2.0000      -0.547351       -14.8942
  42   2.0000      -0.538193       -14.6450
  43   2.0000      -0.520949       -14.1758
  44   2.0000      -0.517701       -14.0874
  45   2.0000      -0.512715       -13.9517
  46   2.0000      -0.505509       -13.7556
  47   2.0000      -0.493188       -13.4203
  48   2.0000      -0.488557       -13.2943
  49   2.0000      -0.476942       -12.9782
  50   2.0000      -0.461100       -12.5472
  51   2.0000      -0.455630       -12.3983
  52   2.0000      -0.446936       -12.1617
  53   2.0000      -0.445170       -12.1137
  54   2.0000      -0.438471       -11.9314
  55   2.0000      -0.431130       -11.7316
  56   2.0000      -0.421724       -11.4757
  57   2.0000      -0.408854       -11.1255
  58   2.0000      -0.391456       -10.6521
  59   2.0000      -0.386519       -10.5177
  60   2.0000      -0.386010       -10.5039
  61   2.0000      -0.379819       -10.3354
  62   2.0000      -0.369193       -10.0463
  63   2.0000      -0.353882        -9.6296
  64   2.0000      -0.345223        -9.3940
  65   2.0000      -0.344588        -9.3767
  66   2.0000      -0.336498        -9.1566
  67   2.0000      -0.333183        -9.0664
  68   2.0000      -0.320991        -8.7346
  69   2.0000      -0.309234        -8.4147
  70   2.0000      -0.271996        -7.4014
  71   2.0000      -0.242302        -6.5934
  72   2.0000      -0.237985        -6.4759
  73   0.0000      -0.057082        -1.5533
  74   0.0000      -0.020373        -0.5544
  75   0.0000      -0.003801        -0.1034
  76   0.0000       0.003361         0.0914
  77   0.0000       0.043123         1.1734

MULLIKEN ATOMIC CHARGES
-----------------------
   0 C :    0.116874
   1 C :    0.260113
   2 O :   -0.383044
   3 O :   -0.218603
   4 C :   -0.256338
   5 H :    0.171557
   6 H :    0.157893
   7 H :    0.165379
   8 C :   -0.021033
   9 C :    0.071688
  10 C :   -0.059794
  11 C :   -0.153801
  12 C :   -0.208327
  13 C :   -0.147884
  14 C :   -0.293216
  15 C :    0.231783
  16 O :   -0.257143
  17 C :   -0.282170
  18 N :    0.425762
  19 O :   -0.457096
  20 H :    0.154388
  21 H :    0.165939
  22 H :    0.148036
  23 H :    0.153299
  24 H :    0.166474
  25 H :    0.162647
  26 H :    0.151880
  27 H :    0.151107
  28 O :   -0.229736
  29 H :    0.158047
  30 C :   -0.257597
  31 H :    0.157511
  32 C :   -0.286940
  33 H :    0.172326
  34 H :    0.170019
Sum of atomic charges:    0.0000000

LOEWDIN ATOMIC CHARGES
----------------------
   0 C :   -0.234990
   1 C :   -0.485080
   2 O :    0.092819
   3 O :    0.272757
   4 C :   -0.295520
   5 H :    0.177616
   6 H :    0.121070
   7 H :    0.123648
   8 C :   -0.197737
   9 C :   -0.142212
  10 C :   -0.107446
  11 C :   -0.105842
  12 C :   -0.164037
  13 C :   -0.144058
  14 C :   -0.139097
  15 C :   -0.230744
  16 O :    0.248929
  17 C :   -0.324539
  18 N :    0.075632
  19 O :   -0.126145
  20 H :    0.188623
  21 H :    0.164081
  22 H :    0.152502
  23 H :    0.154984
  24 H :    0.160567
  25 H :    0.121928
  26 H :    0.117903
  27 H :    0.117550
  28 O :    0.193051
  29 H :    0.121000
  30 C :   -0.177299
  31 H :    0.162306
  32 C :   -0.164023
  33 H :    0.136880
  34 H :    0.134923

  Mayer bond orders larger than 0.100000
B(  0-C ,  1-C ) :   0.9652 B(  0-C ,  5-H ) :   0.9216 B(  0-C ,  9-C ) :   0.9119
B(  0-C , 28-O ) :   0.9805 B(  1-C ,  2-O ) :   2.0061 B(  1-C ,  3-O ) :   1.2483
B(  3-O ,  4-C ) :   0.8827 B(  4-C ,  6-H ) :   0.9657 B(  4-C ,  7-H ) :   0.9622
B(  4-C , 29-H ) :   0.9659 B(  8-C ,  9-C ) :   0.9358 B(  8-C , 18-N ) :   1.5694
B(  8-C , 19-O ) :   0.1742 B(  8-C , 30-C ) :   1.0984 B(  9-C , 10-C ) :   0.8706
B(  9-C , 20-H ) :   0.9640 B( 10-C , 11-C ) :   1.3515 B( 10-C , 15-C ) :   1.3107
B( 11-C , 12-C ) :   1.4021 B( 11-C , 21-H ) :   0.9766 B( 12-C , 13-C ) :   1.4137
B( 12-C , 22-H ) :   0.9803 B( 13-C , 14-C ) :   1.3894 B( 13-C , 23-H ) :   0.9645
B( 14-C , 15-C ) :   1.3786 B( 14-C , 24-H ) :   0.9585 B( 15-C , 16-O ) :   1.1312
B( 16-O , 17-C ) :   0.9368 B( 17-C , 25-H ) :   0.9646 B( 17-C , 26-H ) :   0.9618
B( 17-C , 27-H ) :   0.9619 B( 18-N , 19-O ) :   1.4742 B( 18-N , 28-O ) :   0.8519
B( 30-C , 31-H ) :   0.9481 B( 30-C , 32-C ) :   1.8467 B( 32-C , 33-H ) :   0.9450
B( 32-C , 34-H ) :   0.9521

Dispersion correction           -0.038809273
FINAL SINGLE POINT ENERGY      -972.596455769356

DIPOLE MOMENT
-------------
                                X             Y             Z
Electronic contribution:      6.95053       0.97637     -10.72239
Nuclear contribution   :     -9.77281      -0.60633      13.85326
                        -----------------------------------------
Total Dipole Moment    :     -2.82228       0.37004       3.13087
                        -----------------------------------------
Magnitude (a.u.)       :      4.23137
Magnitude (Debye)      :     10.75530

Dispersion correction in the Hessian             ... done   (      0.6 sec)

VIBRATIONAL FREQUENCIES
-----------------------

Scaling factor for frequencies =  1.000000000  (already applied!)

   0:         0.00 cm**-1
   1:         0.00 cm**-1
   2:         0.00 cm**-1
   3:         0.00 cm**-1
   4:         0.00 cm**-1
   5:         0.00 cm**-1
   6:        17.75 cm**-1
   7:        32.27 cm**-1
   8:        53.57 cm**-1
   9:        62.16 cm**-1
  10:        73.70 cm**-1
  11:        96.47 cm**-1
  12:        99.98 cm**-1
  13:       129.09 cm**-1
  14:       145.20 cm**-1
  15:       148.00 cm**-1
  16:       162.06 cm**-1
  17:       180.43 cm**-1
  18:       200.75 cm**-1
  19:       233.76 cm**-1
  20:       248.82 cm**-1
  21:       259.62 cm**-1
  22:       300.92 cm**-1
  23:       313.79 cm**-1
  24:       346.82 cm**-1
  25:       362.43 cm**-1
  26:       391.58 cm**-1
  27:       410.26 cm**-1
  28:       479.80 cm**-1
  29:       498.29 cm**-1
  30:       561.12 cm**-1
  31:       574.95 cm**-1
  32:       588.39 cm**-1
  33:       604.37 cm**-1
  34:       628.87 cm**-1
  35:       633.16 cm**-1
  36:       719.15 cm**-1
  37:       727.34 cm**-1
  38:       734.12 cm**-1
  39:       768.04 cm**-1
  40:       772.17 cm**-1
  41:       784.60 cm**-1
  42:       816.07 cm**-1
  43:       857.03 cm**-1
  44:       875.34 cm**-1
  45:       900.15 cm**-1
  46:       927.51 cm**-1
  47:       952.57 cm**-1
  48:       957.56 cm**-1
  49:       968.74 cm**-1
  50:       991.92 cm**-1
  51:      1003.46 cm**-1
  52:      1022.72 cm**-1
  53:      1025.97 cm**-1
  54:      1054.73 cm**-1
  55:      1071.65 cm**-1
  56:      1083.90 cm**-1
  57:      1104.05 cm**-1
  58:      1137.36 cm**-1
  59:      1171.22 cm**-1
  60:      1171.66 cm**-1
  61:      1175.23 cm**-1
  62:      1194.95 cm**-1
  63:      1205.52 cm**-1
  64:      1212.87 cm**-1
  65:      1236.90 cm**-1
  66:      1243.18 cm**-1
  67:      1276.96 cm**-1
  68:      1288.59 cm**-1
  69:      1296.39 cm**-1
  70:      1308.85 cm**-1
  71:      1325.89 cm**-1
  72:      1355.43 cm**-1
  73:      1373.62 cm**-1
  74:      1396.10 cm**-1
  75:      1414.38 cm**-1
  76:      1465.75 cm**-1
  77:      1466.05 cm**-1
  78:      1469.69 cm**-1
  79:      1472.59 cm**-1
  80:      1473.63 cm**-1
  81:      1477.47 cm**-1
  82:      1483.69 cm**-1
  83:      1498.98 cm**-1
  84:      1536.72 cm**-1
  85:      1649.48 cm**-1
  86:      1663.64 cm**-1
  87:      1683.36 cm**-1
  88:      1701.79 cm**-1
  89:      1805.63 cm**-1
  90:      3037.58 cm**-1
  91:      3074.81 cm**-1
  92:      3109.11 cm**-1
  93:      3109.44 cm**-1
  94:      3144.49 cm**-1
  95:      3160.21 cm**-1
  96:      3164.53 cm**-1
  97:      3165.77 cm**-1
  98:      3188.35 cm**-1
  99:      3193.27 cm**-1
 100:      3194.44 cm**-1
 101:      3196.79 cm**-1
 102:      3214.97 cm**-1
 103:      3231.28 cm**-1
 104:      3258.94 cm**-1

IR SPECTRUM
-----------

 Mode   freq       eps      Int      T**2         TX        TY        TZ
       cm**-1   L/(mol*cm) km/mol    a.u.
----------------------------------------------------------------------------
  6:     17.75   0.000112    0.57  0.001978  ( 0.041778 -0.000088  0.015250)
  7:     32.27   0.000510    2.58  0.004927  ( 0.041934 -0.015487  0.054120)
  8:     53.57   0.000268    1.35  0.001560  ( 0.018216  0.032670 -0.012666)
  9:     62.16   0.000252    1.27  0.001263  ( 0.020418  0.028570 -0.005505)
 10:     73.70   0.000050    0.25  0.000212  (-0.007094 -0.002188  0.012515)
 11:     96.47   0.000363    1.84  0.001176  (-0.000496 -0.034194  0.002492)
 12:     99.98   0.001172    5.92  0.003657  (-0.027845  0.030071 -0.044463)
 13:    129.09   0.000036    0.18  0.000087  ( 0.003143 -0.007695  0.004279)
 14:    145.20   0.000194    0.98  0.000418  (-0.013565 -0.007919 -0.013087)
 15:    148.00   0.000162    0.82  0.000342  (-0.009480  0.006474 -0.014486)
 16:    162.06   0.000396    2.00  0.000762  (-0.019048 -0.008961 -0.017850)
 17:    180.43   0.000701    3.54  0.001212  (-0.009636  0.028467 -0.017584)
 18:    200.75   0.000052    0.26  0.000080  (-0.003684 -0.007702 -0.002692)
 19:    233.76   0.001232    6.23  0.001645  (-0.015306  0.037406 -0.003436)
 20:    248.82   0.002176   11.00  0.002729  ( 0.007264  0.015517 -0.049351)
 21:    259.62   0.002475   12.51  0.002975  (-0.019224  0.046590 -0.020849)
 22:    300.92   0.000542    2.74  0.000562  ( 0.013037  0.004357  0.019305)
 23:    313.79   0.002112   10.67  0.002101  ( 0.023124 -0.039297  0.004665)
 24:    346.82   0.003571   18.05  0.003213  ( 0.014898 -0.038655 -0.038695)
 25:    362.43   0.000365    1.84  0.000314  ( 0.007631 -0.015974 -0.000735)
 26:    391.58   0.000757    3.82  0.000603  (-0.005262 -0.019460 -0.014026)
 27:    410.26   0.000348    1.76  0.000265  (-0.014072  0.001646 -0.008015)
 28:    479.80   0.001864    9.42  0.001213  ( 0.001746 -0.026974  0.021952)
 29:    498.29   0.002055   10.38  0.001287  (-0.032970  0.003346 -0.013729)
 30:    561.12   0.000890    4.50  0.000495  ( 0.016120 -0.013714  0.006873)
 31:    574.95   0.003724   18.82  0.002021  ( 0.037236  0.000122  0.025194)
 32:    588.39   0.001879    9.50  0.000997  (-0.006293  0.030424 -0.005605)
 33:    604.37   0.002605   13.16  0.001345  ( 0.028036 -0.020039 -0.012547)
 34:    628.87   0.003946   19.94  0.001958  (-0.016347  0.040907 -0.004192)
 35:    633.16   0.004856   24.54  0.002393  (-0.020062 -0.042036 -0.014959)
 36:    719.15   0.001580    7.99  0.000686  ( 0.013399  0.017716  0.013871)
 37:    727.34   0.001726    8.72  0.000740  (-0.018466 -0.015933  0.012062)
 38:    734.12   0.002314   11.70  0.000984  (-0.029596  0.008687 -0.005695)
 39:    768.04   0.014847   75.03  0.006032  ( 0.039998 -0.040215  0.053059)
 40:    772.17   0.017276   87.30  0.006982  ( 0.000271  0.070976 -0.044092)
 41:    784.60   0.002376   12.01  0.000945  (-0.000834  0.015298 -0.026650)
 42:    816.07   0.006973   35.24  0.002667  ( 0.015756  0.043937  0.022087)
 43:    857.03   0.006727   34.00  0.002450  (-0.009428 -0.044091  0.020412)
 44:    875.34   0.000993    5.02  0.000354  (-0.001671  0.015471 -0.010581)
 45:    900.15   0.003249   16.42  0.001126  ( 0.022673  0.012939 -0.021089)
 46:    927.51   0.058759  296.94  0.019770  ( 0.075402 -0.117981 -0.012837)
 47:    952.57   0.016415   82.96  0.005378  ( 0.046140  0.043833  0.036435)
 48:    957.56   0.002674   13.51  0.000872  (-0.026661  0.011892 -0.004395)
 49:    968.74   0.001445    7.30  0.000465  (-0.019220 -0.005969  0.007769)
 50:    991.92   0.000071    0.36  0.000022  ( 0.000159 -0.004656 -0.000879)
 51:   1003.46   0.003493   17.65  0.001086  (-0.009325 -0.031603  0.000706)
 52:   1022.72   0.005602   28.31  0.001709  (-0.027583 -0.025332 -0.017516)
 53:   1025.97   0.001477    7.47  0.000449  (-0.016901 -0.006304 -0.011137)
 54:   1054.73   0.002797   14.14  0.000828  (-0.010194 -0.024102 -0.011949)
 55:   1071.65   0.012253   61.92  0.003568  (-0.046072  0.010894  0.036424)
 56:   1083.90   0.008166   41.27  0.002351  (-0.000199  0.029221  0.038694)
 57:   1104.05   0.018786   94.94  0.005310  ( 0.014582 -0.036385 -0.061428)
 58:   1137.36   0.010737   54.26  0.002946  (-0.024058  0.019012  0.044786)
 59:   1171.22   0.000249    1.26  0.000066  ( 0.000864 -0.007753  0.002316)
 60:   1171.66   0.000176    0.89  0.000047  (-0.000068 -0.002036  0.006542)
 61:   1175.23   0.001755    8.87  0.000466  (-0.015830  0.004389  0.014003)
 62:   1194.95   0.001072    5.42  0.000280  ( 0.003319  0.015312 -0.005879)
 63:   1205.52   0.004924   24.88  0.001275  ( 0.004760 -0.026541 -0.023399)
 64:   1212.87   0.002440   12.33  0.000628  (-0.014135  0.017378  0.011223)
 65:   1236.90   0.034921  176.47  0.008810  ( 0.036576 -0.063033 -0.059155)
 66:   1243.18   0.008686   43.90  0.002180  (-0.009017  0.000854  0.045809)
 67:   1276.96   0.061801  312.32  0.015103  ( 0.007917 -0.101043 -0.069503)
 68:   1288.59   0.030498  154.12  0.007386  (-0.056435 -0.001377  0.064799)
 69:   1296.39   0.054514  275.49  0.013122  ( 0.021882 -0.071829 -0.086512)
 70:   1308.85   0.013753   69.50  0.003279  (-0.025275 -0.034717 -0.037881)
 71:   1325.89   0.016169   81.71  0.003806  (-0.016870  0.032831  0.049428)
 72:   1355.43   0.015139   76.51  0.003486  ( 0.036069  0.009403 -0.045785)
 73:   1373.62   0.004141   20.93  0.000941  (-0.016991 -0.023758 -0.009359)
 74:   1396.10   0.032070  162.07  0.007168  (-0.025510  0.046217  0.066194)
 75:   1414.38   0.001507    7.62  0.000332  ( 0.003527 -0.003531  0.017537)
 76:   1465.75   0.003347   16.92  0.000713  ( 0.012589  0.019490  0.013203)
 77:   1466.05   0.004341   21.94  0.000924  (-0.000224  0.027710 -0.012496)
 78:   1469.69   0.011132   56.26  0.002364  ( 0.003935  0.034094  0.034435)
 79:   1472.59   0.002832   14.31  0.000600  ( 0.022965 -0.004685 -0.007133)
 80:   1473.63   0.002909   14.70  0.000616  (-0.008833  0.016608 -0.016191)
 81:   1477.47   0.011309   57.15  0.002389  (-0.026863 -0.005260  0.040490)
 82:   1483.69   0.005343   27.00  0.001124  ( 0.008713  0.025264  0.020240)
 83:   1498.98   0.014712   74.35  0.003063  (-0.007247  0.031039  0.045242)
 84:   1536.72   0.039266  198.44  0.007974  (-0.005181 -0.056520 -0.068939)
 85:   1649.48   0.012514   63.24  0.002367  ( 0.028445 -0.007435 -0.038769)
 86:   1663.64   0.018588   93.94  0.003487  ( 0.001882  0.031668  0.049803)
 87:   1683.36   0.002267   11.46  0.000420  ( 0.004555 -0.013102  0.015093)
 88:   1701.79   0.233170  1178.35  0.042757  ( 0.101358  0.056374 -0.171189)
 89:   1805.63   0.102311  517.04  0.017682  ( 0.123636  0.005019 -0.048694)
 90:   3037.58   0.012123   61.27  0.001245  ( 0.022543 -0.010798 -0.024914)
 91:   3074.81   0.005242   26.49  0.000532  ( 0.008528  0.016517  0.013657)
 92:   3109.11   0.007266   36.72  0.000729  (-0.007964  0.019802 -0.016547)
 93:   3109.44   0.000424    2.14  0.000043  (-0.006491 -0.000518 -0.000427)
 94:   3144.49   0.000425    2.15  0.000042  (-0.003161  0.004258  0.003753)
 95:   3160.21   0.003311   16.73  0.000327  ( 0.003263 -0.013337  0.011767)
 96:   3164.53   0.000177    0.89  0.000017  (-0.002897  0.001485  0.002612)
 97:   3165.77   0.003806   19.23  0.000375  ( 0.009087  0.013077  0.011028)
 98:   3188.35   0.000376    1.90  0.000037  (-0.004736  0.001092  0.003628)
 99:   3193.27   0.001840    9.30  0.000180  ( 0.010550 -0.004192 -0.007138)
100:   3194.44   0.000500    2.53  0.000049  (-0.000668  0.004481 -0.005323)
101:   3196.79   0.001577    7.97  0.000154  (-0.011845 -0.002787  0.002429)
102:   3214.97   0.002875   14.53  0.000279  (-0.005887 -0.011327 -0.010773)
103:   3231.28   0.000382    1.93  0.000037  ( 0.004737 -0.001095 -0.003637)
104:   3258.94   0.000510    2.58  0.000049  (-0.005342  0.004353  0.001153)

--------------------------
THERMOCHEMISTRY AT 298.15K
--------------------------

Temperature         ... 298.15 K
Pressure            ... 1.00 atm
Total Mass          ... 277.28 AMU

Throughout the following assumptions are being made:
  (1) The electronic state is orbitally nondegenerate
  (2) There are no thermally accessible electronically excited states
  (3) Hindered rotations indicated by low frequency modes are not
      treated as such but are treated as vibrations and this may
      cause some error
  (4) All equations used are the standard statistical mechanics
      equations for an ideal gas
  (5) All vibrations are strictly harmonic

freq.      17.75  E(vib)   ...       0.57
freq.      32.27  E(vib)   ...       0.55
freq.      53.57  E(vib)   ...       0.52
freq.      62.16  E(vib)   ...       0.51
freq.      73.70  E(vib)   ...       0.49
freq.      96.47  E(vib)   ...       0.47
freq.      99.98  E(vib)   ...       0.46
freq.     129.09  E(vib)   ...       0.43
freq.     145.20  E(vib)   ...       0.41
freq.     148.00  E(vib)   ...       0.41
freq.     162.06  E(vib)   ...       0.39
freq.     180.43  E(vib)   ...       0.37
freq.     200.75  E(vib)   ...       0.35
freq.     233.76  E(vib)   ...       0.32
freq.     248.82  E(vib)   ...       0.31
freq.     259.62  E(vib)   ...       0.30
freq.     300.92  E(vib)   ...       0.26
freq.     313.79  E(vib)   ...       0.25
freq.     346.82  E(vib)   ...       0.23
freq.     362.43  E(vib)   ...       0.22
freq.     391.58  E(vib)   ...       0.20
freq.     410.26  E(vib)   ...       0.19
freq.     479.80  E(vib)   ...       0.15
freq.     498.29  E(vib)   ...       0.14
freq.     561.12  E(vib)   ...       0.11
freq.     574.95  E(vib)   ...       0.11
freq.     588.39  E(vib)   ...       0.10
freq.     604.37  E(vib)   ...       0.10
freq.     628.87  E(vib)   ...       0.09
freq.     633.16  E(vib)   ...       0.09
freq.     719.15  E(vib)   ...       0.07
freq.     727.34  E(vib)   ...       0.06
freq.     734.12  E(vib)   ...       0.06
freq.     768.04  E(vib)   ...       0.06
freq.     772.17  E(vib)   ...       0.05
freq.     784.60  E(vib)   ...       0.05
freq.     816.07  E(vib)   ...       0.05
freq.     857.03  E(vib)   ...       0.04
freq.     875.34  E(vib)   ...       0.04
freq.     900.15  E(vib)   ...       0.03
freq.     927.51  E(vib)   ...       0.03
freq.     952.57  E(vib)   ...       0.03
freq.     957.56  E(vib)   ...       0.03
freq.     968.74  E(vib)   ...       0.03
freq.     991.92  E(vib)   ...       0.02
freq.    1003.46  E(vib)   ...       0.02
freq.    1022.72  E(vib)   ...       0.02
freq.    1025.97  E(vib)   ...       0.02
freq.    1054.73  E(vib)   ...       0.02
freq.    1071.65  E(vib)   ...       0.02
freq.    1083.90  E(vib)   ...       0.02
freq.    1104.05  E(vib)   ...       0.02
freq.    1137.36  E(vib)   ...       0.01
freq.    1171.22  E(vib)   ...       0.01
freq.    1171.66  E(vib)   ...       0.01
freq.    1175.23  E(vib)   ...       0.01
freq.    1194.95  E(vib)   ...       0.01
freq.    1205.52  E(vib)   ...       0.01
freq.    1212.87  E(vib)   ...       0.01
freq.    1236.90  E(vib)   ...       0.01
freq.    1243.18  E(vib)   ...       0.01
freq.    1276.96  E(vib)   ...       0.01
freq.    1288.59  E(vib)   ...       0.01
freq.    1296.39  E(vib)   ...       0.01
freq.    1308.85  E(vib)   ...       0.01
freq.    1325.89  E(vib)   ...       0.01
freq.    1355.43  E(vib)   ...       0.01
freq.    1373.62  E(vib)   ...       0.01
freq.    1396.10  E(vib)   ...       0.00
freq.    1414.38  E(vib)   ...       0.00
freq.    1465.75  E(vib)   ...       0.00
freq.    1466.05  E(vib)   ...       0.00
freq.    1469.69  E(vib)   ...       0.00
freq.    1472.59  E(vib)   ...       0.00
freq.    1473.63  E(vib)   ...       0.00
freq.    1477.47  E(vib)   ...       0.00
freq.    1483.69  E(vib)   ...       0.00
freq.    1498.98  E(vib)   ...       0.00
freq.    1536.72  E(vib)   ...       0.00
freq.    1649.48  E(vib)   ...       0.00
freq.    1663.64  E(vib)   ...       0.00
freq.    1683.36  E(vib)   ...       0.00
freq.    1701.79  E(vib)   ...       0.00
freq.    1805.63  E(vib)   ...       0.00
freq.    3037.58  E(vib)   ...       0.00
freq.    3074.81  E(vib)   ...       0.00
freq.    3109.11  E(vib)   ...       0.00
freq.    3109.44  E(vib)   ...       0.00
freq.    3144.49  E(vib)   ...       0.00
freq.    3160.21  E(vib)   ...       0.00
freq.    3164.53  E(vib)   ...       0.00
freq.    3165.77  E(vib)   ...       0.00
freq.    3188.35  E(vib)   ...       0.00
freq.    3193.27  E(vib)   ...       0.00
freq.    3194.44  E(vib)   ...       0.00
freq.    3196.79  E(vib)   ...       0.00
freq.    3214.97  E(vib)   ...       0.00
freq.    3231.28  E(vib)   ...       0.00
freq.    3258.94  E(vib)   ...       0.00

------------
INNER ENERGY
------------

The inner energy is: U= E(el) + E(ZPE) + E(vib) + E(rot) + E(trans)
    E(el)   - is the total energy from the electronic structure calculation
              = E(kin-el) + E(nuc-el) + E(el-el) + E(nuc-nuc)
    E(ZPE)  - the the zero temperature vibrational energy from the frequency calculation
    E(vib)  - the the finite temperature correction to E(ZPE) due to population
              of excited vibrational states
    E(rot)  - is the rotational thermal energy
    E(trans)- is the translational thermal energy

Summary of contributions to the inner energy U:
Electronic energy                ...   -972.59645577 Eh
Zero point energy                ...      0.27573743 Eh     173.03 kcal/mol
Thermal vibrational correction   ...      0.01603177 Eh      10.06 kcal/mol
Thermal rotational correction    ...      0.00141627 Eh       0.89 kcal/mol
Thermal translational correction ...      0.00141627 Eh       0.89 kcal/mol
-----------------------------------------------------------------------
Total thermal energy                   -972.30185403 Eh

Summary of corrections to the electronic energy:
(perhaps to be used in another calculation)
Total thermal correction                  0.01886431 Eh      11.84 kcal/mol
Non-thermal (ZPE) correction              0.27573743 Eh     173.03 kcal/mol
-----------------------------------------------------------------------
Total correction                          0.29460174 Eh     184.86 kcal/mol

--------
ENTHALPY
--------

The enthalpy is H = U + kB*T
                kB is Boltzmann's constant
Total free energy                 ...   -972.30185403 Eh
Thermal Enthalpy correction       ...      0.00094421 Eh       0.59 kcal/mol
-----------------------------------------------------------------------
Total Enthalpy                    ...   -972.30090982 Eh

Note: Only C1 symmetry has been detected, increase convergence thresholds

Rotational constants in cm-1:     0.013991     0.010545     0.007422

                             ****ORCA TERMINATED NORMALLY****
TOTAL RUN TIME: 0 days 0 hours 36 minutes 50 seconds 983 msec
