                         Program Version 5.0.4 -  RELEASE  -
|  1> %pal nprocs 24 end
|  2> %maxcore 3500
|  3> ! PBE0 D3BJ def2-TZVP TightSCF OPT FREQ TightOpt
|  4> ! CPCM(dmso)
|  5> %scf
|  6> MaxIter 800
|  7> end
|  8> %geom
|  9> MaxIter 800
| 10> MaxStep 0.2
| 11> end
| 12> *xyz 0 1
| 13> C        0.688601000     -1.357822000     -0.083784000
| 14> C        1.038696000     -2.400404000     -1.134767000
| 15> O        1.875522000     -3.254066000     -0.997594000
| 16> O        0.299752000     -2.223994000     -2.215647000
| 17> C        0.559284000     -3.105740000     -3.314868000
| 18> H       -0.392361000     -1.329498000      0.080792000
| 19> H        1.591133000     -2.994548000     -3.647875000
| 20> H       -0.129566000     -2.805031000     -4.099475000
| 21> C        2.545513000     -0.101941000      0.281077000
| 22> C        1.266515000      0.032873000     -0.446860000
| 23> C        0.426085000      1.200761000      0.012268000
| 24> C        0.715836000      1.923950000      1.157271000
| 25> C       -0.084935000      2.986157000      1.558356000
| 26> C       -1.191761000      3.323016000      0.799015000
| 27> C       -1.506681000      2.610501000     -0.350867000
| 28> C       -0.701990000      1.548701000     -0.744792000
| 29> O       -0.933073000      0.786125000     -1.832425000
| 30> C       -2.061381000      1.086943000     -2.632379000
| 31> N        2.553255000     -1.040576000      1.164894000
| 32> O        3.382305000     -1.409160000      1.990079000
| 33> H        1.426043000      0.097909000     -1.525393000
| 34> H        1.581578000      1.656989000      1.754800000
| 35> H        0.157267000      3.540097000      2.457066000
| 36> H       -1.829740000      4.146425000      1.099571000
| 37> H       -2.381423000      2.880692000     -0.926803000
| 38> H       -2.985690000      1.002660000     -2.054733000
| 39> H       -2.065316000      0.351734000     -3.434319000
| 40> H       -1.986816000      2.092329000     -3.056095000
| 41> O        1.303225000     -1.715313000      1.151082000
| 42> H        0.375768000     -4.138504000     -3.019317000
| 43> F        3.598278000      0.667962000      0.153876000
| 44> *
| 45>
| 46>                          ****END OF INPUT****
 Total Charge           Charge          ....    0
 Multiplicity           Mult            ....    1
 Number of Electrons    NEL             ....  140
Dispersion correction           -0.032955262
FINAL SINGLE POINT ENERGY      -994.429871837841
Dispersion correction            ... done
Dispersion correction           -0.032966788
FINAL SINGLE POINT ENERGY      -994.429906928690
Dispersion correction            ... done
Dispersion correction           -0.032964197
FINAL SINGLE POINT ENERGY      -994.429909135725
Dispersion correction            ... done
FINAL SINGLE POINT ENERGY      -994.429917024874
FINAL SINGLE POINT ENERGY      -994.429916425808
FINAL SINGLE POINT ENERGY      -994.429911584963
FINAL SINGLE POINT ENERGY      -994.429909974248
FINAL SINGLE POINT ENERGY      -994.429909212714
Dispersion correction           -0.032982169
FINAL SINGLE POINT ENERGY      -994.429910349889
Dispersion correction            ... done
Dispersion correction           -0.032982046
FINAL SINGLE POINT ENERGY      -994.429911572859
Dispersion correction            ... done
                    ***********************HURRAY********************

CARTESIAN COORDINATES (ANGSTROEM)
---------------------------------
  C      0.685407   -1.349819   -0.091213
  C      1.039616   -2.387155   -1.149453
  O      1.910088   -3.207986   -1.026844
  O      0.273305   -2.236538   -2.213338
  C      0.543194   -3.106773   -3.320163
  H     -0.392561   -1.312006    0.056662
  H      1.561598   -2.952211   -3.676189
  H     -0.175762   -2.834043   -4.087690
  C      2.545496   -0.106511    0.300326
  C      1.275905    0.039610   -0.441380
  C      0.433850    1.206581    0.015172
  C      0.720711    1.931915    1.159555
  C     -0.083375    2.993232    1.557203
  C     -1.189795    3.326844    0.795215
  C     -1.502008    2.611210   -0.354327
  C     -0.692849    1.551159   -0.745970
  O     -0.915092    0.788768   -1.835425
  C     -2.057195    1.066530   -2.625223
  N      2.539966   -1.052248    1.176323
  O      3.358535   -1.435653    2.003342
  H      1.448609    0.109260   -1.517817
  H      1.586748    1.668793    1.758260
  H      0.157716    3.550983    2.453804
  H     -1.827049    4.152492    1.091110
  H     -2.372488    2.882907   -0.936158
  H     -2.974106    0.962305   -2.038579
  H     -2.052295    0.332111   -3.427796
  H     -2.008011    2.073270   -3.049009
  O      1.283559   -1.719903    1.145597
  H      0.409347   -4.146101   -3.021206
  F      3.602858    0.658203    0.187365

 Multiplicity           Mult            ....    1
 Number of Electrons    NEL             ....  140
 Basis Dimension        Dim             ....  661

ORBITAL ENERGIES
----------------

  NO   OCC          E(Eh)            E(eV)
   0   2.0000     -24.831875      -675.7097
   1   2.0000     -19.289692      -524.8992
   2   2.0000     -19.271708      -524.4098
   3   2.0000     -19.249586      -523.8079
   4   2.0000     -19.224371      -523.1217
   5   2.0000     -19.212942      -522.8107
   6   2.0000     -14.591483      -397.0544
   7   2.0000     -10.367142      -282.1043
   8   2.0000     -10.367074      -282.1024
   9   2.0000     -10.320548      -280.8364
  10   2.0000     -10.295518      -280.1553
  11   2.0000     -10.283552      -279.8297
  12   2.0000     -10.274198      -279.5751
  13   2.0000     -10.268297      -279.4146
  14   2.0000     -10.247855      -278.8583
  15   2.0000     -10.236414      -278.5470
  16   2.0000     -10.232812      -278.4490
  17   2.0000     -10.229202      -278.3507
  18   2.0000     -10.224791      -278.2307
  19   2.0000      -1.320088       -35.9214
  20   2.0000      -1.235460       -33.6186
  21   2.0000      -1.162621       -31.6365
  22   2.0000      -1.112808       -30.2810
  23   2.0000      -1.107160       -30.1273
  24   2.0000      -1.069167       -29.0935
  25   2.0000      -0.923447       -25.1283
  26   2.0000      -0.895442       -24.3662
  27   2.0000      -0.852268       -23.1914
  28   2.0000      -0.796899       -21.6847
  29   2.0000      -0.783269       -21.3138
  30   2.0000      -0.759738       -20.6735
  31   2.0000      -0.725975       -19.7548
  32   2.0000      -0.710450       -19.3323
  33   2.0000      -0.668564       -18.1926
  34   2.0000      -0.641226       -17.4486
  35   2.0000      -0.625594       -17.0233
  36   2.0000      -0.615854       -16.7582
  37   2.0000      -0.587947       -15.9989
  38   2.0000      -0.580382       -15.7930
  39   2.0000      -0.559648       -15.2288
  40   2.0000      -0.554090       -15.0776
  41   2.0000      -0.536161       -14.5897
  42   2.0000      -0.533586       -14.5196
  43   2.0000      -0.519974       -14.1492
  44   2.0000      -0.511721       -13.9246
  45   2.0000      -0.509934       -13.8760
  46   2.0000      -0.502117       -13.6633
  47   2.0000      -0.494590       -13.4585
  48   2.0000      -0.490793       -13.3552
  49   2.0000      -0.472835       -12.8665
  50   2.0000      -0.463426       -12.6105
  51   2.0000      -0.456220       -12.4144
  52   2.0000      -0.445188       -12.1142
  53   2.0000      -0.438707       -11.9378
  54   2.0000      -0.431600       -11.7444
  55   2.0000      -0.426770       -11.6130
  56   2.0000      -0.409207       -11.1351
  57   2.0000      -0.390868       -10.6361
  58   2.0000      -0.388368       -10.5680
  59   2.0000      -0.387036       -10.5318
  60   2.0000      -0.374938       -10.2026
  61   2.0000      -0.354129        -9.6363
  62   2.0000      -0.347905        -9.4670
  63   2.0000      -0.345369        -9.3980
  64   2.0000      -0.337804        -9.1921
  65   2.0000      -0.324840        -8.8393
  66   2.0000      -0.313254        -8.5241
  67   2.0000      -0.276126        -7.5138
  68   2.0000      -0.255008        -6.9391
  69   2.0000      -0.244401        -6.6505
  70   0.0000      -0.024584        -0.6690
  71   0.0000      -0.015421        -0.4196
  72   0.0000      -0.008621        -0.2346
  73   0.0000       0.000337         0.0092
  74   0.0000       0.040531         1.1029

MULLIKEN ATOMIC CHARGES
-----------------------
   0 C :    0.095792
   1 C :    0.260539
   2 O :   -0.377570
   3 O :   -0.214290
   4 C :   -0.255003
   5 H :    0.176959
   6 H :    0.158135
   7 H :    0.165743
   8 C :    0.158138
   9 C :    0.000041
  10 C :   -0.012996
  11 C :   -0.192156
  12 C :   -0.203741
  13 C :   -0.150495
  14 C :   -0.283725
  15 C :    0.230314
  16 O :   -0.248820
  17 C :   -0.283943
  18 N :    0.400039
  19 O :   -0.478142
  20 H :    0.150900
  21 H :    0.159452
  22 H :    0.151277
  23 H :    0.154609
  24 H :    0.168841
  25 H :    0.152038
  26 H :    0.163427
  27 H :    0.153290
  28 O :   -0.212321
  29 H :    0.157944
  30 F :   -0.144276
Sum of atomic charges:   -0.0000000

LOEWDIN ATOMIC CHARGES
----------------------
   0 C :   -0.226015
   1 C :   -0.486864
   2 O :    0.096363
   3 O :    0.276155
   4 C :   -0.293237
   5 H :    0.179429
   6 H :    0.121293
   7 H :    0.123864
   8 C :   -0.344468
   9 C :   -0.154778
  10 C :   -0.107844
  11 C :   -0.109153
  12 C :   -0.161327
  13 C :   -0.140737
  14 C :   -0.136281
  15 C :   -0.231459
  16 O :    0.254647
  17 C :   -0.322102
  18 N :    0.050881
  19 O :   -0.143198
  20 H :    0.193156
  21 H :    0.163263
  22 H :    0.153471
  23 H :    0.155846
  24 H :    0.161475
  25 H :    0.118335
  26 H :    0.122149
  27 H :    0.118386
  28 O :    0.191115
  29 H :    0.121341
  30 F :    0.256292

  Mayer bond orders larger than 0.100000
B(  0-C ,  1-C ) :   0.9756 B(  0-C ,  5-H ) :   0.9199 B(  0-C ,  9-C ) :   0.9231
B(  0-C , 28-O ) :   0.9812 B(  1-C ,  2-O ) :   2.0040 B(  1-C ,  3-O ) :   1.2504
B(  3-O ,  4-C ) :   0.8831 B(  4-C ,  6-H ) :   0.9656 B(  4-C ,  7-H ) :   0.9618
B(  4-C , 29-H ) :   0.9657 B(  8-C ,  9-C ) :   1.0417 B(  8-C , 18-N ) :   1.5968
B(  8-C , 19-O ) :   0.2539 B(  8-C , 30-F ) :   1.1681 B(  9-C , 10-C ) :   0.8988
B(  9-C , 20-H ) :   0.9279 B( 10-C , 11-C ) :   1.3670 B( 10-C , 15-C ) :   1.3054
B( 11-C , 12-C ) :   1.4030 B( 11-C , 21-H ) :   0.9725 B( 12-C , 13-C ) :   1.4199
B( 12-C , 22-H ) :   0.9774 B( 13-C , 14-C ) :   1.3880 B( 13-C , 23-H ) :   0.9642
B( 14-C , 15-C ) :   1.3733 B( 14-C , 24-H ) :   0.9576 B( 15-C , 16-O ) :   1.1523
B( 16-O , 17-C ) :   0.9350 B( 17-C , 25-H ) :   0.9617 B( 17-C , 26-H ) :   0.9642
B( 17-C , 27-H ) :   0.9612 B( 18-N , 19-O ) :   1.4225 B( 18-N , 28-O ) :   0.8671

Dispersion correction           -0.032981918
FINAL SINGLE POINT ENERGY      -994.429911788611

DIPOLE MOMENT
-------------
                                X             Y             Z
Electronic contribution:     14.53699      -2.97262       9.32982
Nuclear contribution   :    -17.68353       4.61126     -12.24441
                        -----------------------------------------
Total Dipole Moment    :     -3.14654       1.63864      -2.91460
                        -----------------------------------------
Magnitude (a.u.)       :      4.59138
Magnitude (Debye)      :     11.67036

Dispersion correction in the Hessian             ... done   (      0.4 sec)

VIBRATIONAL FREQUENCIES
-----------------------

Scaling factor for frequencies =  1.000000000  (already applied!)

   0:         0.00 cm**-1
   1:         0.00 cm**-1
   2:         0.00 cm**-1
   3:         0.00 cm**-1
   4:         0.00 cm**-1
   5:         0.00 cm**-1
   6:        18.64 cm**-1
   7:        30.28 cm**-1
   8:        50.28 cm**-1
   9:        68.66 cm**-1
  10:        87.86 cm**-1
  11:       101.07 cm**-1
  12:       102.96 cm**-1
  13:       142.75 cm**-1
  14:       148.63 cm**-1
  15:       169.45 cm**-1
  16:       192.47 cm**-1
  17:       215.89 cm**-1
  18:       249.22 cm**-1
  19:       253.71 cm**-1
  20:       296.45 cm**-1
  21:       311.22 cm**-1
  22:       325.46 cm**-1
  23:       354.31 cm**-1
  24:       370.28 cm**-1
  25:       428.11 cm**-1
  26:       466.09 cm**-1
  27:       493.86 cm**-1
  28:       528.30 cm**-1
  29:       565.52 cm**-1
  30:       582.67 cm**-1
  31:       607.08 cm**-1
  32:       638.91 cm**-1
  33:       665.38 cm**-1
  34:       712.80 cm**-1
  35:       718.61 cm**-1
  36:       762.20 cm**-1
  37:       770.82 cm**-1
  38:       779.32 cm**-1
  39:       817.17 cm**-1
  40:       850.32 cm**-1
  41:       877.64 cm**-1
  42:       898.71 cm**-1
  43:       955.46 cm**-1
  44:       965.04 cm**-1
  45:       966.92 cm**-1
  46:       994.03 cm**-1
  47:      1016.27 cm**-1
  48:      1039.62 cm**-1
  49:      1070.26 cm**-1
  50:      1084.29 cm**-1
  51:      1090.82 cm**-1
  52:      1138.84 cm**-1
  53:      1170.86 cm**-1
  54:      1171.35 cm**-1
  55:      1176.24 cm**-1
  56:      1194.47 cm**-1
  57:      1205.31 cm**-1
  58:      1212.31 cm**-1
  59:      1229.79 cm**-1
  60:      1239.88 cm**-1
  61:      1284.61 cm**-1
  62:      1294.99 cm**-1
  63:      1306.56 cm**-1
  64:      1322.53 cm**-1
  65:      1357.02 cm**-1
  66:      1372.63 cm**-1
  67:      1385.21 cm**-1
  68:      1452.09 cm**-1
  69:      1466.12 cm**-1
  70:      1467.54 cm**-1
  71:      1469.80 cm**-1
  72:      1472.34 cm**-1
  73:      1474.08 cm**-1
  74:      1483.15 cm**-1
  75:      1499.50 cm**-1
  76:      1538.28 cm**-1
  77:      1650.19 cm**-1
  78:      1664.72 cm**-1
  79:      1806.37 cm**-1
  80:      1815.61 cm**-1
  81:      3039.40 cm**-1
  82:      3076.00 cm**-1
  83:      3098.92 cm**-1
  84:      3111.75 cm**-1
  85:      3151.65 cm**-1
  86:      3161.93 cm**-1
  87:      3168.23 cm**-1
  88:      3186.18 cm**-1
  89:      3195.21 cm**-1
  90:      3197.35 cm**-1
  91:      3216.20 cm**-1
  92:      3231.70 cm**-1

IR SPECTRUM
-----------

 Mode   freq       eps      Int      T**2         TX        TY        TZ
       cm**-1   L/(mol*cm) km/mol    a.u.
----------------------------------------------------------------------------
  6:     18.64   0.000336    1.70  0.005623  ( 0.062904  0.022458 -0.034077)
  7:     30.28   0.000165    0.83  0.001697  ( 0.033111  0.012387 -0.021147)
  8:     50.28   0.000166    0.84  0.001033  ( 0.003149 -0.031640 -0.004717)
  9:     68.66   0.000270    1.36  0.001226  (-0.011361  0.032608  0.005836)
 10:     87.86   0.000152    0.77  0.000541  ( 0.003895 -0.018095 -0.014087)
 11:    101.07   0.000309    1.56  0.000955  ( 0.010909  0.028728 -0.003292)
 12:    102.96   0.001095    5.53  0.003319  (-0.031469 -0.020219  0.043812)
 13:    142.75   0.000090    0.46  0.000197  ( 0.007077  0.011174  0.004749)
 14:    148.63   0.000356    1.80  0.000746  ( 0.013186 -0.002623 -0.023785)
 15:    169.45   0.000198    1.00  0.000365  (-0.017574 -0.000194  0.007459)
 16:    192.47   0.001179    5.96  0.001911  (-0.029262 -0.029083  0.014453)
 17:    215.89   0.000759    3.83  0.001097  ( 0.024135  0.022502 -0.002822)
 18:    249.22   0.001526    7.71  0.001910  ( 0.013503  0.023786 -0.034093)
 19:    253.71   0.001117    5.64  0.001373  ( 0.010074 -0.009568  0.034356)
 20:    296.45   0.000715    3.61  0.000752  (-0.015159 -0.017370 -0.014865)
 21:    311.22   0.002043   10.32  0.002049  ( 0.036161  0.022622  0.015141)
 22:    325.46   0.003256   16.46  0.003122  ( 0.044304  0.024186  0.023965)
 23:    354.31   0.001816    9.18  0.001600  (-0.000131  0.001005  0.039985)
 24:    370.28   0.001168    5.90  0.000984  (-0.022256 -0.005801 -0.021333)
 25:    428.11   0.002381   12.03  0.001736  (-0.014010  0.037860  0.010302)
 26:    466.09   0.001024    5.18  0.000686  (-0.013199 -0.018701  0.012724)
 27:    493.86   0.000877    4.43  0.000554  ( 0.008392 -0.021780 -0.003029)
 28:    528.30   0.005432   27.45  0.003209  (-0.048068 -0.008338  0.028790)
 29:    565.52   0.000483    2.44  0.000267  ( 0.014824 -0.002522 -0.006363)
 30:    582.67   0.001332    6.73  0.000713  (-0.001942 -0.024828 -0.009654)
 31:    607.08   0.001961    9.91  0.001008  (-0.023669  0.013277 -0.016477)
 32:    638.91   0.002551   12.89  0.001246  ( 0.020985 -0.013339  0.025057)
 33:    665.38   0.005552   28.06  0.002604  (-0.024754 -0.009850 -0.043524)
 34:    712.80   0.003166   16.00  0.001386  ( 0.003473 -0.035407 -0.010973)
 35:    718.61   0.004450   22.49  0.001932  ( 0.036624 -0.021176  0.011947)
 36:    762.20   0.007618   38.50  0.003119  ( 0.035705  0.006450 -0.042457)
 37:    770.82   0.021711  109.72  0.008790  (-0.045702 -0.068498  0.044821)
 38:    779.32   0.000094    0.48  0.000038  ( 0.004747 -0.002563 -0.002941)
 39:    817.17   0.006554   33.12  0.002503  (-0.002049 -0.039709 -0.030365)
 40:    850.32   0.002297   11.61  0.000843  ( 0.002449  0.028920  0.000792)
 41:    877.64   0.001295    6.54  0.000460  (-0.010869 -0.015857  0.009533)
 42:    898.71   0.002637   13.32  0.000916  (-0.009383  0.027047 -0.009795)
 43:    955.46   0.003128   15.81  0.001022  ( 0.016068  0.020400  0.018634)
 44:    965.04   0.047756  241.34  0.015443  (-0.110079 -0.040737 -0.040813)
 45:    966.92   0.001226    6.19  0.000396  ( 0.011622 -0.015447  0.004675)
 46:    994.03   0.000134    0.68  0.000042  (-0.004557 -0.002343 -0.003967)
 47:   1016.27   0.023152  117.00  0.007109  ( 0.055976  0.058593  0.023298)
 48:   1039.62   0.003638   18.38  0.001092  (-0.011541  0.023988  0.019577)
 49:   1070.26   0.015584   78.76  0.004544  (-0.052548  0.013464 -0.040018)
 50:   1084.29   0.009633   48.68  0.002773  (-0.012982 -0.017864 -0.047800)
 51:   1090.82   0.013947   70.48  0.003990  ( 0.005405 -0.015437  0.061011)
 52:   1138.84   0.007489   37.85  0.002052  ( 0.031757 -0.004310  0.032018)
 53:   1170.86   0.000220    1.11  0.000059  (-0.004948 -0.005796  0.000820)
 54:   1171.35   0.000196    0.99  0.000052  ( 0.002141  0.003412 -0.005990)
 55:   1176.24   0.001700    8.59  0.000451  ( 0.015952 -0.007475  0.011857)
 56:   1194.47   0.000554    2.80  0.000145  ( 0.001539 -0.009020 -0.007805)
 57:   1205.31   0.004869   24.60  0.001261  (-0.011807 -0.009668 -0.032057)
 58:   1212.31   0.002305   11.65  0.000593  ( 0.017321 -0.000305  0.017123)
 59:   1229.79   0.002909   14.70  0.000738  (-0.012023  0.000607 -0.024357)
 60:   1239.88   0.035793  180.89  0.009009  (-0.045106 -0.007529 -0.083171)
 61:   1284.61   0.060334  304.90  0.014657  (-0.018909 -0.046926 -0.109986)
 62:   1294.99   0.069130  349.35  0.016659  (-0.089525 -0.001660 -0.092959)
 63:   1306.56   0.016676   84.27  0.003983  (-0.004445 -0.032685 -0.053805)
 64:   1322.53   0.017589   88.89  0.004150  ( 0.031469  0.024645  0.050523)
 65:   1357.02   0.045594  230.41  0.010485  (-0.050377  0.051201 -0.072976)
 66:   1372.63   0.007891   39.88  0.001794  ( 0.003775 -0.040664 -0.011234)
 67:   1385.21   0.035637  180.09  0.008028  ( 0.037109 -0.001120  0.081547)
 68:   1452.09   0.047131  238.18  0.010129  ( 0.037274  0.090911 -0.021785)
 69:   1466.12   0.003564   18.01  0.000759  (-0.016070 -0.019697  0.010602)
 70:   1467.54   0.008475   42.83  0.001802  (-0.006962 -0.017930  0.037845)
 71:   1469.80   0.009833   49.69  0.002088  ( 0.002361  0.020900  0.040562)
 72:   1472.34   0.003602   18.20  0.000763  (-0.020700  0.009020 -0.015927)
 73:   1474.08   0.003335   16.86  0.000706  ( 0.013909  0.016095 -0.015925)
 74:   1483.15   0.005812   29.37  0.001223  ( 0.007558  0.022559  0.025627)
 75:   1499.50   0.013128   66.34  0.002732  ( 0.016747  0.005466  0.049212)
 76:   1538.28   0.038280  193.45  0.007766  (-0.024906 -0.033489 -0.077614)
 77:   1650.19   0.006764   34.18  0.001279  (-0.026037  0.008421 -0.023026)
 78:   1664.72   0.016408   82.92  0.003076  ( 0.011048  0.024399  0.048564)
 79:   1806.37   0.109449  553.11  0.018908  ( 0.098383 -0.083388  0.047701)
 80:   1815.61   0.079234  400.42  0.013619  ( 0.089195 -0.036846  0.065614)
 81:   3039.40   0.012080   61.05  0.001240  ( 0.027154 -0.005516  0.021738)
 82:   3076.00   0.005092   25.74  0.000517  (-0.001876  0.012935  0.018596)
 83:   3098.92   0.000273    1.38  0.000027  ( 0.004172 -0.002336  0.002151)
 84:   3111.75   0.007077   35.76  0.000710  (-0.013960 -0.016722  0.015337)
 85:   3151.65   0.000411    2.08  0.000041  ( 0.000104  0.000135  0.006381)
 86:   3161.93   0.003133   15.83  0.000309  (-0.011439 -0.011922  0.006021)
 87:   3168.23   0.003647   18.43  0.000359  ( 0.001014 -0.013073 -0.013684)
 88:   3186.18   0.000841    4.25  0.000082  (-0.007607  0.003635 -0.003360)
 89:   3195.21   0.001727    8.73  0.000169  ( 0.009163 -0.004323  0.008122)
 90:   3197.35   0.001393    7.04  0.000136  ( 0.008631 -0.007820 -0.000579)
 91:   3216.20   0.002461   12.44  0.000239  (-0.001420 -0.009960 -0.011730)
 92:   3231.70   0.000281    1.42  0.000027  (-0.003933  0.001631 -0.003007)

--------------------------
THERMOCHEMISTRY AT 298.15K
--------------------------

Temperature         ... 298.15 K
Pressure            ... 1.00 atm
Total Mass          ... 269.23 AMU

Throughout the following assumptions are being made:
  (1) The electronic state is orbitally nondegenerate
  (2) There are no thermally accessible electronically excited states
  (3) Hindered rotations indicated by low frequency modes are not
      treated as such but are treated as vibrations and this may
      cause some error
  (4) All equations used are the standard statistical mechanics
      equations for an ideal gas
  (5) All vibrations are strictly harmonic

freq.      18.64  E(vib)   ...       0.57
freq.      30.28  E(vib)   ...       0.55
freq.      50.28  E(vib)   ...       0.52
freq.      68.66  E(vib)   ...       0.50
freq.      87.86  E(vib)   ...       0.48
freq.     101.07  E(vib)   ...       0.46
freq.     102.96  E(vib)   ...       0.46
freq.     142.75  E(vib)   ...       0.41
freq.     148.63  E(vib)   ...       0.41
freq.     169.45  E(vib)   ...       0.38
freq.     192.47  E(vib)   ...       0.36
freq.     215.89  E(vib)   ...       0.34
freq.     249.22  E(vib)   ...       0.31
freq.     253.71  E(vib)   ...       0.30
freq.     296.45  E(vib)   ...       0.27
freq.     311.22  E(vib)   ...       0.25
freq.     325.46  E(vib)   ...       0.24
freq.     354.31  E(vib)   ...       0.22
freq.     370.28  E(vib)   ...       0.21
freq.     428.11  E(vib)   ...       0.18
freq.     466.09  E(vib)   ...       0.16
freq.     493.86  E(vib)   ...       0.14
freq.     528.30  E(vib)   ...       0.13
freq.     565.52  E(vib)   ...       0.11
freq.     582.67  E(vib)   ...       0.11
freq.     607.08  E(vib)   ...       0.10
freq.     638.91  E(vib)   ...       0.09
freq.     665.38  E(vib)   ...       0.08
freq.     712.80  E(vib)   ...       0.07
freq.     718.61  E(vib)   ...       0.07
freq.     762.20  E(vib)   ...       0.06
freq.     770.82  E(vib)   ...       0.05
freq.     779.32  E(vib)   ...       0.05
freq.     817.17  E(vib)   ...       0.05
freq.     850.32  E(vib)   ...       0.04
freq.     877.64  E(vib)   ...       0.04
freq.     898.71  E(vib)   ...       0.03
freq.     955.46  E(vib)   ...       0.03
freq.     965.04  E(vib)   ...       0.03
freq.     966.92  E(vib)   ...       0.03
freq.     994.03  E(vib)   ...       0.02
freq.    1016.27  E(vib)   ...       0.02
freq.    1039.62  E(vib)   ...       0.02
freq.    1070.26  E(vib)   ...       0.02
freq.    1084.29  E(vib)   ...       0.02
freq.    1090.82  E(vib)   ...       0.02
freq.    1138.84  E(vib)   ...       0.01
freq.    1170.86  E(vib)   ...       0.01
freq.    1171.35  E(vib)   ...       0.01
freq.    1176.24  E(vib)   ...       0.01
freq.    1194.47  E(vib)   ...       0.01
freq.    1205.31  E(vib)   ...       0.01
freq.    1212.31  E(vib)   ...       0.01
freq.    1229.79  E(vib)   ...       0.01
freq.    1239.88  E(vib)   ...       0.01
freq.    1284.61  E(vib)   ...       0.01
freq.    1294.99  E(vib)   ...       0.01
freq.    1306.56  E(vib)   ...       0.01
freq.    1322.53  E(vib)   ...       0.01
freq.    1357.02  E(vib)   ...       0.01
freq.    1372.63  E(vib)   ...       0.01
freq.    1385.21  E(vib)   ...       0.00
freq.    1452.09  E(vib)   ...       0.00
freq.    1466.12  E(vib)   ...       0.00
freq.    1467.54  E(vib)   ...       0.00
freq.    1469.80  E(vib)   ...       0.00
freq.    1472.34  E(vib)   ...       0.00
freq.    1474.08  E(vib)   ...       0.00
freq.    1483.15  E(vib)   ...       0.00
freq.    1499.50  E(vib)   ...       0.00
freq.    1538.28  E(vib)   ...       0.00
freq.    1650.19  E(vib)   ...       0.00
freq.    1664.72  E(vib)   ...       0.00
freq.    1806.37  E(vib)   ...       0.00
freq.    1815.61  E(vib)   ...       0.00
freq.    3039.40  E(vib)   ...       0.00
freq.    3076.00  E(vib)   ...       0.00
freq.    3098.92  E(vib)   ...       0.00
freq.    3111.75  E(vib)   ...       0.00
freq.    3151.65  E(vib)   ...       0.00
freq.    3161.93  E(vib)   ...       0.00
freq.    3168.23  E(vib)   ...       0.00
freq.    3186.18  E(vib)   ...       0.00
freq.    3195.21  E(vib)   ...       0.00
freq.    3197.35  E(vib)   ...       0.00
freq.    3216.20  E(vib)   ...       0.00
freq.    3231.70  E(vib)   ...       0.00

------------
INNER ENERGY
------------

The inner energy is: U= E(el) + E(ZPE) + E(vib) + E(rot) + E(trans)
    E(el)   - is the total energy from the electronic structure calculation
              = E(kin-el) + E(nuc-el) + E(el-el) + E(nuc-nuc)
    E(ZPE)  - the the zero temperature vibrational energy from the frequency calculation
    E(vib)  - the the finite temperature correction to E(ZPE) due to population
              of excited vibrational states
    E(rot)  - is the rotational thermal energy
    E(trans)- is the translational thermal energy

Summary of contributions to the inner energy U:
Electronic energy                ...   -994.42991179 Eh
Zero point energy                ...      0.23463473 Eh     147.24 kcal/mol
Thermal vibrational correction   ...      0.01459526 Eh       9.16 kcal/mol
Thermal rotational correction    ...      0.00141627 Eh       0.89 kcal/mol
Thermal translational correction ...      0.00141627 Eh       0.89 kcal/mol
-----------------------------------------------------------------------
Total thermal energy                   -994.17784925 Eh

Summary of corrections to the electronic energy:
(perhaps to be used in another calculation)
Total thermal correction                  0.01742780 Eh      10.94 kcal/mol
Non-thermal (ZPE) correction              0.23463473 Eh     147.24 kcal/mol
-----------------------------------------------------------------------
Total correction                          0.25206253 Eh     158.17 kcal/mol

--------
ENTHALPY
--------

The enthalpy is H = U + kB*T
                kB is Boltzmann's constant
Total free energy                 ...   -994.17784925 Eh
Thermal Enthalpy correction       ...      0.00094421 Eh       0.59 kcal/mol
-----------------------------------------------------------------------
Total Enthalpy                    ...   -994.17690505 Eh

Note: Only C1 symmetry has been detected, increase convergence thresholds
      if your molecule has a higher symmetry. Symmetry factor of 1.0 is
      used for the rotational entropy correction.

Note: Rotational entropy computed according to Herzberg
Infrared and Raman Spectra, Chapter V,1, Van Nostrand Reinhold, 1945
Point Group:  C1, Symmetry Number:   1
Rotational constants in cm-1:     0.016126     0.011483     0.007474

Vibrational entropy computed according to the QRRHO of S. Grimme
Chem.Eur.J. 2012 18 9955

                             ****ORCA TERMINATED NORMALLY****
TOTAL RUN TIME: 0 days 0 hours 30 minutes 18 seconds 712 msec
