                         Program Version 5.0.4 -  RELEASE  -
|  1> %pal nprocs 24 end
|  2> %maxcore 3500
|  3> ! PBE0 D3BJ def2-TZVP TightSCF OPT FREQ TightOpt
|  4> ! CPCM(dmso)
|  5> %scf
|  6> MaxIter 800
|  7> end
|  8> %geom
|  9> MaxIter 800
| 10> MaxStep 0.2
| 11> end
| 12> *xyz 0 1
| 13> C        0.718139000     -1.359355000     -0.062971000
| 14> C        1.053797000     -2.409310000     -1.110250000
| 15> O        1.916031000     -3.241317000     -0.993531000
| 16> O        0.272992000     -2.271175000     -2.168711000
| 17> C        0.516605000     -3.167062000     -3.259133000
| 18> H       -0.358347000     -1.347533000      0.128674000
| 19> H        1.535960000     -3.044200000     -3.625022000
| 20> H       -0.200360000     -2.893584000     -4.028498000
| 21> C        2.587744000     -0.043218000      0.215763000
| 22> C        1.266261000      0.033707000     -0.456800000
| 23> C        0.412372000      1.186517000      0.018560000
| 24> C        0.705267000      1.902929000      1.167845000
| 25> C       -0.096001000      2.958876000      1.585453000
| 26> C       -1.208827000      3.300066000      0.837413000
| 27> C       -1.529073000      2.595471000     -0.316055000
| 28> C       -0.724721000      1.538759000     -0.724469000
| 29> O       -0.966274000      0.787718000     -1.819537000
| 30> C       -2.076962000      1.124489000     -2.628587000
| 31> N        2.615348000     -0.972704000      1.111123000
| 32> O        3.446558000     -1.341027000      1.928501000
| 33> H        1.369365000      0.094137000     -1.541794000
| 34> H        1.578681000      1.631887000      1.751366000
| 35> H        0.151502000      3.505248000      2.487610000
| 36> H       -1.847214000      4.119040000      1.149259000
| 37> H       -2.408685000      2.868464000     -0.883064000
| 38> H       -3.011816000      1.047049000     -2.067166000
| 39> H       -2.083316000      0.405248000     -3.445011000
| 40> H       -1.977791000      2.136535000     -3.031367000
| 41> O        1.377820000     -1.682975000      1.147419000
| 42> H        0.361411000     -4.197897000     -2.940987000
| 43> H        3.450063000      0.592320000      0.092898000
| 44> *
| 45>
| 46>                          ****END OF INPUT****
 Total Charge           Charge          ....    0
 Multiplicity           Mult            ....    1
 Number of Electrons    NEL             ....  132
Dispersion correction           -0.032618181
FINAL SINGLE POINT ENERGY      -895.250604556950
Dispersion correction            ... done
Dispersion correction           -0.032629782
FINAL SINGLE POINT ENERGY      -895.250652470411
Dispersion correction            ... done
Dispersion correction           -0.032627937
FINAL SINGLE POINT ENERGY      -895.250668965911
Dispersion correction            ... done
FINAL SINGLE POINT ENERGY      -895.250679462020
FINAL SINGLE POINT ENERGY      -895.250684372518
FINAL SINGLE POINT ENERGY      -895.250691621658
Dispersion correction           -0.032648845
FINAL SINGLE POINT ENERGY      -895.250694877610
Dispersion correction            ... done
Dispersion correction           -0.032651240
FINAL SINGLE POINT ENERGY      -895.250696548219
Dispersion correction            ... done
                    ***********************HURRAY********************

CARTESIAN COORDINATES (ANGSTROEM)
---------------------------------
  C      0.722659   -1.349305   -0.061507
  C      1.048493   -2.398439   -1.115408
  O      1.930981   -3.210337   -1.015266
  O      0.242661   -2.274913   -2.155053
  C      0.484658   -3.160297   -3.255251
  H     -0.350432   -1.325921    0.125316
  H      1.490708   -3.005911   -3.645118
  H     -0.258828   -2.904630   -4.005225
  C      2.597538   -0.041682    0.226426
  C      1.280871    0.041279   -0.453698
  C      0.424124    1.192869    0.017545
  C      0.703365    1.902302    1.174372
  C     -0.108072    2.950766    1.592100
  C     -1.215619    3.292174    0.835666
  C     -1.521554    2.594511   -0.326830
  C     -0.706895    1.544787   -0.735418
  O     -0.929947    0.801685   -1.839330
  C     -2.061463    1.106247   -2.633069
  N      2.619473   -0.975039    1.117615
  O      3.445518   -1.352778    1.933934
  H      1.391318    0.101093   -1.538038
  H      1.573114    1.631879    1.763595
  H      0.129104    3.493320    2.499256
  H     -1.858130    4.108823    1.145133
  H     -2.392607    2.872636   -0.904787
  H     -2.985834    0.995419   -2.059292
  H     -2.054041    0.391378   -3.453216
  H     -2.001222    2.122571   -3.032361
  O      1.376402   -1.681631    1.147140
  H      0.367219   -4.195997   -2.937068
  H      3.462966    0.590245    0.106766

 Multiplicity           Mult            ....    1
 Number of Electrons    NEL             ....  132
 Basis Dimension        Dim             ....  636

ORBITAL ENERGIES
----------------

  NO   OCC          E(Eh)            E(eV)
   0   2.0000     -19.280824      -524.6579
   1   2.0000     -19.269164      -524.3406
   2   2.0000     -19.247337      -523.7467
   3   2.0000     -19.220694      -523.0217
   4   2.0000     -19.209974      -522.7300
   5   2.0000     -14.590132      -397.0177
   6   2.0000     -10.363320      -282.0003
   7   2.0000     -10.311519      -280.5907
   8   2.0000     -10.292554      -280.0746
   9   2.0000     -10.277946      -279.6771
  10   2.0000     -10.273045      -279.5438
  11   2.0000     -10.270239      -279.4674
  12   2.0000     -10.267302      -279.3875
  13   2.0000     -10.242835      -278.7217
  14   2.0000     -10.232118      -278.4301
  15   2.0000     -10.230668      -278.3906
  16   2.0000     -10.227095      -278.2934
  17   2.0000     -10.222521      -278.1689
  18   2.0000      -1.232864       -33.5479
  19   2.0000      -1.159774       -31.5590
  20   2.0000      -1.110344       -30.2140
  21   2.0000      -1.100956       -29.9585
  22   2.0000      -1.065752       -29.0006
  23   2.0000      -0.916482       -24.9388
  24   2.0000      -0.890097       -24.2208
  25   2.0000      -0.841628       -22.9019
  26   2.0000      -0.792638       -21.5688
  27   2.0000      -0.779830       -21.2203
  28   2.0000      -0.754066       -20.5192
  29   2.0000      -0.721957       -19.6454
  30   2.0000      -0.698360       -19.0033
  31   2.0000      -0.647784       -17.6271
  32   2.0000      -0.631357       -17.1801
  33   2.0000      -0.613190       -16.6858
  34   2.0000      -0.596170       -16.2226
  35   2.0000      -0.577554       -15.7160
  36   2.0000      -0.565505       -15.3882
  37   2.0000      -0.549787       -14.9605
  38   2.0000      -0.534740       -14.5510
  39   2.0000      -0.519149       -14.1268
  40   2.0000      -0.516729       -14.0609
  41   2.0000      -0.510289       -13.8857
  42   2.0000      -0.502349       -13.6696
  43   2.0000      -0.493220       -13.4212
  44   2.0000      -0.484417       -13.1816
  45   2.0000      -0.472401       -12.8547
  46   2.0000      -0.457615       -12.4523
  47   2.0000      -0.452522       -12.3138
  48   2.0000      -0.444742       -12.1020
  49   2.0000      -0.431984       -11.7549
  50   2.0000      -0.430636       -11.7182
  51   2.0000      -0.417205       -11.3527
  52   2.0000      -0.406856       -11.0711
  53   2.0000      -0.387399       -10.5417
  54   2.0000      -0.385552       -10.4914
  55   2.0000      -0.384775       -10.4703
  56   2.0000      -0.371219       -10.1014
  57   2.0000      -0.349475        -9.5097
  58   2.0000      -0.344955        -9.3867
  59   2.0000      -0.342666        -9.3244
  60   2.0000      -0.335649        -9.1335
  61   2.0000      -0.319229        -8.6867
  62   2.0000      -0.309280        -8.4159
  63   2.0000      -0.273091        -7.4312
  64   2.0000      -0.257014        -6.9937
  65   2.0000      -0.241858        -6.5813
  66   0.0000      -0.027728        -0.7545
  67   0.0000      -0.015830        -0.4308
  68   0.0000      -0.003326        -0.0905
  69   0.0000       0.003734         0.1016
  70   0.0000       0.043887         1.1942

MULLIKEN ATOMIC CHARGES
-----------------------
   0 C :    0.091209
   1 C :    0.265417
   2 O :   -0.384053
   3 O :   -0.217891
   4 C :   -0.254448
   5 H :    0.169796
   6 H :    0.156708
   7 H :    0.164653
   8 C :   -0.208592
   9 C :    0.056950
  10 C :   -0.031393
  11 C :   -0.188316
  12 C :   -0.199615
  13 C :   -0.152421
  14 C :   -0.287033
  15 C :    0.231007
  16 O :   -0.251645
  17 C :   -0.282224
  18 N :    0.405384
  19 O :   -0.462811
  20 H :    0.140606
  21 H :    0.167410
  22 H :    0.148646
  23 H :    0.153039
  24 H :    0.167005
  25 H :    0.150889
  26 H :    0.162485
  27 H :    0.151813
  28 O :   -0.227467
  29 H :    0.156627
  30 H :    0.208264
Sum of atomic charges:    0.0000000

LOEWDIN ATOMIC CHARGES
----------------------
   0 C :   -0.242488
   1 C :   -0.484912
   2 O :    0.091234
   3 O :    0.273131
   4 C :   -0.295941
   5 H :    0.177356
   6 H :    0.120668
   7 H :    0.123358
   8 C :   -0.164052
   9 C :   -0.177953
  10 C :   -0.107744
  11 C :   -0.111729
  12 C :   -0.164994
  13 C :   -0.144718
  14 C :   -0.139790
  15 C :   -0.232118
  16 O :    0.252194
  17 C :   -0.324456
  18 N :    0.049707
  19 O :   -0.137778
  20 H :    0.186513
  21 H :    0.162395
  22 H :    0.152383
  23 H :    0.154899
  24 H :    0.160624
  25 H :    0.117725
  26 H :    0.121736
  27 H :    0.117859
  28 O :    0.183582
  29 H :    0.120743
  30 H :    0.162565

  Mayer bond orders larger than 0.100000
B(  0-C ,  1-C ) :   0.9712 B(  0-C ,  5-H ) :   0.9247 B(  0-C ,  9-C ) :   0.9341
B(  0-C , 28-O ) :   0.9930 B(  1-C ,  2-O ) :   2.0030 B(  1-C ,  3-O ) :   1.2438
B(  3-O ,  4-C ) :   0.8854 B(  4-C ,  6-H ) :   0.9662 B(  4-C ,  7-H ) :   0.9620
B(  4-C , 29-H ) :   0.9662 B(  8-C ,  9-C ) :   0.9708 B(  8-C , 18-N ) :   1.6412
B(  8-C , 19-O ) :   0.2504 B(  8-C , 30-H ) :   0.9390 B(  9-C , 10-C ) :   0.9221
B(  9-C , 20-H ) :   0.9331 B( 10-C , 11-C ) :   1.3753 B( 10-C , 15-C ) :   1.3015
B( 11-C , 12-C ) :   1.3988 B( 11-C , 21-H ) :   0.9730 B( 12-C , 13-C ) :   1.4207
B( 12-C , 22-H ) :   0.9790 B( 13-C , 14-C ) :   1.3860 B( 13-C , 23-H ) :   0.9646
B( 14-C , 15-C ) :   1.3705 B( 14-C , 24-H ) :   0.9580 B( 15-C , 16-O ) :   1.1490
B( 16-O , 17-C ) :   0.9376 B( 17-C , 25-H ) :   0.9618 B( 17-C , 26-H ) :   0.9644
B( 17-C , 27-H ) :   0.9615 B( 18-N , 19-O ) :   1.4786 B( 18-N , 28-O ) :   0.8598

Dispersion correction           -0.032651771
FINAL SINGLE POINT ENERGY      -895.250697087842

DIPOLE MOMENT
-------------
                                X             Y             Z
Electronic contribution:      7.97758      -4.51060       7.86694
Nuclear contribution   :    -10.49689       6.41023     -10.66582
                        -----------------------------------------
Total Dipole Moment    :     -2.51931       1.89963      -2.79888
                        -----------------------------------------
Magnitude (a.u.)       :      4.21773
Magnitude (Debye)      :     10.72061

Dispersion correction in the Hessian             ... done   (      0.6 sec)

VIBRATIONAL FREQUENCIES
-----------------------

Scaling factor for frequencies =  1.000000000  (already applied!)

   0:         0.00 cm**-1
   1:         0.00 cm**-1
   2:         0.00 cm**-1
   3:         0.00 cm**-1
   4:         0.00 cm**-1
   5:         0.00 cm**-1
   6:        19.30 cm**-1
   7:        31.57 cm**-1
   8:        52.20 cm**-1
   9:        71.85 cm**-1
  10:       100.99 cm**-1
  11:       102.19 cm**-1
  12:       112.01 cm**-1
  13:       145.75 cm**-1
  14:       160.50 cm**-1
  15:       191.78 cm**-1
  16:       213.88 cm**-1
  17:       252.88 cm**-1
  18:       256.00 cm**-1
  19:       288.00 cm**-1
  20:       315.63 cm**-1
  21:       344.90 cm**-1
  22:       354.80 cm**-1
  23:       394.41 cm**-1
  24:       470.24 cm**-1
  25:       499.80 cm**-1
  26:       531.31 cm**-1
  27:       567.68 cm**-1
  28:       584.44 cm**-1
  29:       611.51 cm**-1
  30:       656.25 cm**-1
  31:       687.62 cm**-1
  32:       711.46 cm**-1
  33:       748.07 cm**-1
  34:       758.54 cm**-1
  35:       769.38 cm**-1
  36:       774.16 cm**-1
  37:       784.53 cm**-1
  38:       818.72 cm**-1
  39:       848.61 cm**-1
  40:       876.69 cm**-1
  41:       897.42 cm**-1
  42:       953.53 cm**-1
  43:       967.88 cm**-1
  44:       982.26 cm**-1
  45:       991.35 cm**-1
  46:      1021.92 cm**-1
  47:      1049.52 cm**-1
  48:      1070.81 cm**-1
  49:      1084.38 cm**-1
  50:      1098.26 cm**-1
  51:      1136.62 cm**-1
  52:      1170.79 cm**-1
  53:      1171.17 cm**-1
  54:      1174.98 cm**-1
  55:      1195.88 cm**-1
  56:      1205.18 cm**-1
  57:      1213.21 cm**-1
  58:      1229.08 cm**-1
  59:      1242.79 cm**-1
  60:      1258.93 cm**-1
  61:      1291.65 cm**-1
  62:      1305.14 cm**-1
  63:      1314.24 cm**-1
  64:      1329.18 cm**-1
  65:      1369.02 cm**-1
  66:      1385.62 cm**-1
  67:      1391.49 cm**-1
  68:      1465.52 cm**-1
  69:      1465.85 cm**-1
  70:      1469.38 cm**-1
  71:      1472.70 cm**-1
  72:      1473.92 cm**-1
  73:      1483.40 cm**-1
  74:      1497.97 cm**-1
  75:      1535.84 cm**-1
  76:      1648.85 cm**-1
  77:      1663.14 cm**-1
  78:      1740.54 cm**-1
  79:      1803.45 cm**-1
  80:      3037.63 cm**-1
  81:      3074.90 cm**-1
  82:      3104.90 cm**-1
  83:      3109.10 cm**-1
  84:      3141.63 cm**-1
  85:      3160.00 cm**-1
  86:      3166.55 cm**-1
  87:      3188.48 cm**-1
  88:      3193.65 cm**-1
  89:      3196.41 cm**-1
  90:      3214.03 cm**-1
  91:      3230.84 cm**-1
  92:      3279.12 cm**-1

IR SPECTRUM
-----------

 Mode   freq       eps      Int      T**2         TX        TY        TZ
       cm**-1   L/(mol*cm) km/mol    a.u.
----------------------------------------------------------------------------
  6:     19.30   0.000340    1.72  0.005493  ( 0.067181  0.012532 -0.028681)
  7:     31.57   0.000194    0.98  0.001918  (-0.027321 -0.005306  0.033808)
  8:     52.20   0.000198    1.00  0.001185  ( 0.002598 -0.034223 -0.002563)
  9:     71.85   0.000427    2.16  0.001853  (-0.018318  0.038944  0.000563)
 10:    100.99   0.000514    2.60  0.001590  ( 0.024605  0.029066 -0.011811)
 11:    102.19   0.000675    3.41  0.002061  (-0.022300 -0.017378  0.035523)
 12:    112.01   0.000213    1.08  0.000595  ( 0.014655 -0.003652 -0.019148)
 13:    145.75   0.000079    0.40  0.000170  ( 0.008377  0.008839 -0.004640)
 14:    160.50   0.000803    4.06  0.001562  (-0.018657  0.006018  0.034321)
 15:    191.78   0.000039    0.20  0.000064  (-0.001578 -0.006912 -0.003720)
 16:    213.88   0.002442   12.34  0.003564  (-0.042367 -0.041624 -0.006001)
 17:    252.88   0.002304   11.65  0.002844  (-0.013610 -0.025528  0.044798)
 18:    256.00   0.000745    3.76  0.000908  ( 0.024761  0.012581  0.011682)
 19:    288.00   0.000295    1.49  0.000320  (-0.001402  0.012965 -0.012233)
 20:    315.63   0.001252    6.33  0.001238  (-0.026675 -0.021508 -0.007989)
 21:    344.90   0.002630   13.29  0.002380  ( 0.043368 -0.006677  0.021320)
 22:    354.80   0.002171   10.97  0.001910  (-0.007851 -0.018639 -0.038739)
 23:    394.41   0.002248   11.36  0.001779  (-0.009172  0.029633  0.028573)
 24:    470.24   0.002015   10.18  0.001337  (-0.020482 -0.024764  0.017453)
 25:    499.80   0.001836    9.28  0.001146  ( 0.027099 -0.012762 -0.015783)
 26:    531.31   0.001946    9.83  0.001143  (-0.031131  0.004076  0.012537)
 27:    567.68   0.000478    2.41  0.000263  ( 0.013201 -0.006581 -0.006704)
 28:    584.44   0.000940    4.75  0.000502  (-0.006481 -0.015341 -0.014990)
 29:    611.51   0.000988    4.99  0.000504  ( 0.018025 -0.010749  0.007978)
 30:    656.25   0.001531    7.74  0.000728  (-0.000198 -0.015929 -0.021775)
 31:    687.62   0.003088   15.61  0.001401  (-0.028218 -0.007720  0.023358)
 32:    711.46   0.003295   16.65  0.001445  (-0.018333 -0.032545 -0.007056)
 33:    748.07   0.005470   27.65  0.002282  (-0.034046  0.033180 -0.004692)
 34:    758.54   0.018617   94.08  0.007659  ( 0.042773  0.070170 -0.030095)
 35:    769.38   0.020269  102.43  0.008221  ( 0.029246 -0.014698 -0.084556)
 36:    774.16   0.021993  111.14  0.008865  (-0.060034 -0.069796 -0.019737)
 37:    784.53   0.027248  137.70  0.010839  ( 0.094807  0.014380  0.040539)
 38:    818.72   0.002722   13.76  0.001038  ( 0.018511 -0.025275 -0.007488)
 39:    848.61   0.007933   40.09  0.002917  (-0.045964 -0.028337  0.001293)
 40:    876.69   0.001424    7.20  0.000507  ( 0.013693  0.014041 -0.011053)
 41:    897.42   0.005358   27.08  0.001863  ( 0.023204  0.036120  0.004502)
 42:    953.53   0.000598    3.02  0.000196  (-0.008854  0.006925  0.008321)
 43:    967.88   0.001204    6.08  0.000388  ( 0.005914 -0.018653  0.002275)
 44:    982.26   0.003084   15.59  0.000980  (-0.030950  0.004502 -0.001334)
 45:    991.35   0.000168    0.85  0.000053  (-0.006931 -0.000010 -0.002231)
 46:   1021.92   0.004839   24.45  0.001478  (-0.009289  0.036576 -0.007308)
 47:   1049.52   0.004434   22.41  0.001318  (-0.008425  0.001882  0.035268)
 48:   1070.81   0.011816   59.71  0.003444  (-0.048668  0.016028 -0.028602)
 49:   1084.38   0.009005   45.51  0.002591  (-0.019587 -0.022121 -0.041454)
 50:   1098.26   0.031388  158.62  0.008919  (-0.051130 -0.016670 -0.077631)
 51:   1136.62   0.008921   45.08  0.002449  ( 0.034046 -0.005520  0.035493)
 52:   1170.79   0.000270    1.36  0.000072  ( 0.005674  0.006295 -0.000129)
 53:   1171.17   0.000176    0.89  0.000047  ( 0.001811  0.003871 -0.005355)
 54:   1174.98   0.002005   10.13  0.000532  ( 0.016829 -0.009403  0.012682)
 55:   1195.88   0.000791    4.00  0.000206  (-0.000820 -0.014333  0.000565)
 56:   1205.18   0.003759   19.00  0.000973  ( 0.009309  0.009090  0.028355)
 57:   1213.21   0.003752   18.96  0.000965  ( 0.025051  0.009275  0.015855)
 58:   1229.08   0.002492   12.59  0.000633  (-0.002529  0.013595 -0.021011)
 59:   1242.79   0.056964  287.88  0.014304  (-0.073599 -0.026817 -0.090376)
 60:   1258.93   0.021897  110.66  0.005428  ( 0.009715  0.021043  0.069934)
 61:   1291.65   0.079749  403.02  0.019267  (-0.075005 -0.022153 -0.114677)
 62:   1305.14   0.006127   30.96  0.001465  ( 0.013454  0.009024  0.034677)
 63:   1314.24   0.032547  164.48  0.007728  (-0.010563  0.065782  0.057352)
 64:   1329.18   0.020522  103.71  0.004818  ( 0.052401 -0.024205  0.038554)
 65:   1369.02   0.015868   80.19  0.003617  ( 0.035134 -0.002669  0.048738)
 66:   1385.62   0.007880   39.82  0.001775  ( 0.009054  0.018282  0.036857)
 67:   1391.49   0.024710  124.88  0.005542  ( 0.044383  0.007037  0.059349)
 68:   1465.52   0.005497   27.78  0.001170  ( 0.007640  0.015928  0.029297)
 69:   1465.85   0.003475   17.56  0.000740  ( 0.013999  0.018080 -0.014725)
 70:   1469.38   0.009776   49.40  0.002076  (-0.006702 -0.024193 -0.038027)
 71:   1472.70   0.003315   16.75  0.000702  ( 0.022171 -0.007012  0.012715)
 72:   1473.92   0.003013   15.23  0.000638  ( 0.013239  0.014535 -0.015858)
 73:   1483.40   0.005240   26.48  0.001102  ( 0.006595  0.018732  0.026607)
 74:   1497.97   0.013449   67.96  0.002802  ( 0.021391  0.016388  0.045558)
 75:   1535.84   0.037220  188.09  0.007563  (-0.026168 -0.037154 -0.074144)
 76:   1648.85   0.009094   45.95  0.001721  ( 0.028343 -0.010528  0.028406)
 77:   1663.14   0.017147   86.65  0.003217  (-0.012933 -0.019987 -0.051484)
 78:   1740.54   0.163778  827.67  0.029364  ( 0.083028 -0.099562  0.112060)
 79:   1803.45   0.101962  515.27  0.017643  ( 0.096714 -0.081171  0.041240)
 80:   3037.63   0.012508   63.21  0.001285  ( 0.027426 -0.006298  0.022206)
 81:   3074.90   0.005363   27.10  0.000544  ( 0.001380 -0.013660 -0.018862)
 82:   3104.90   0.000242    1.22  0.000024  (-0.003842  0.002629  0.001638)
 83:   3109.10   0.007429   37.54  0.000746  ( 0.014879  0.017323 -0.014973)
 84:   3141.63   0.000435    2.20  0.000043  (-0.003228 -0.000303 -0.005719)
 85:   3160.00   0.003373   17.04  0.000333  (-0.011525 -0.012421  0.006778)
 86:   3166.55   0.003860   19.51  0.000380  (-0.001084  0.013107  0.014403)
 87:   3188.48   0.000278    1.41  0.000027  ( 0.003902 -0.001780  0.002970)
 88:   3193.65   0.001868    9.44  0.000182  (-0.009808  0.004401 -0.008180)
 89:   3196.41   0.001573    7.95  0.000154  ( 0.009418 -0.008050  0.000252)
 90:   3214.03   0.003023   15.28  0.000294  (-0.001157 -0.010800 -0.013250)
 91:   3230.84   0.000393    1.99  0.000038  (-0.004784  0.002152 -0.003237)
 92:   3279.12   0.005473   27.66  0.000521  (-0.008870 -0.017934  0.010978)

--------------------------
THERMOCHEMISTRY AT 298.15K
--------------------------

Temperature         ... 298.15 K
Pressure            ... 1.00 atm
Total Mass          ... 251.24 AMU

Throughout the following assumptions are being made:
  (1) The electronic state is orbitally nondegenerate
  (2) There are no thermally accessible electronically excited states
  (3) Hindered rotations indicated by low frequency modes are not
      treated as such but are treated as vibrations and this may
      cause some error
  (4) All equations used are the standard statistical mechanics
      equations for an ideal gas
  (5) All vibrations are strictly harmonic

freq.      19.30  E(vib)   ...       0.57
freq.      31.57  E(vib)   ...       0.55
freq.      52.20  E(vib)   ...       0.52
freq.      71.85  E(vib)   ...       0.50
freq.     100.99  E(vib)   ...       0.46
freq.     102.19  E(vib)   ...       0.46
freq.     112.01  E(vib)   ...       0.45
freq.     145.75  E(vib)   ...       0.41
freq.     160.50  E(vib)   ...       0.39
freq.     191.78  E(vib)   ...       0.36
freq.     213.88  E(vib)   ...       0.34
freq.     252.88  E(vib)   ...       0.30
freq.     256.00  E(vib)   ...       0.30
freq.     288.00  E(vib)   ...       0.27
freq.     315.63  E(vib)   ...       0.25
freq.     344.90  E(vib)   ...       0.23
freq.     354.80  E(vib)   ...       0.22
freq.     394.41  E(vib)   ...       0.20
freq.     470.24  E(vib)   ...       0.16
freq.     499.80  E(vib)   ...       0.14
freq.     531.31  E(vib)   ...       0.13
freq.     567.68  E(vib)   ...       0.11
freq.     584.44  E(vib)   ...       0.11
freq.     611.51  E(vib)   ...       0.10
freq.     656.25  E(vib)   ...       0.08
freq.     687.62  E(vib)   ...       0.07
freq.     711.46  E(vib)   ...       0.07
freq.     748.07  E(vib)   ...       0.06
freq.     758.54  E(vib)   ...       0.06
freq.     769.38  E(vib)   ...       0.06
freq.     774.16  E(vib)   ...       0.05
freq.     784.53  E(vib)   ...       0.05
freq.     818.72  E(vib)   ...       0.05
freq.     848.61  E(vib)   ...       0.04
freq.     876.69  E(vib)   ...       0.04
freq.     897.42  E(vib)   ...       0.03
freq.     953.53  E(vib)   ...       0.03
freq.     967.88  E(vib)   ...       0.03
freq.     982.26  E(vib)   ...       0.02
freq.     991.35  E(vib)   ...       0.02
freq.    1021.92  E(vib)   ...       0.02
freq.    1049.52  E(vib)   ...       0.02
freq.    1070.81  E(vib)   ...       0.02
freq.    1084.38  E(vib)   ...       0.02
freq.    1098.26  E(vib)   ...       0.02
freq.    1136.62  E(vib)   ...       0.01
freq.    1170.79  E(vib)   ...       0.01
freq.    1171.17  E(vib)   ...       0.01
freq.    1174.98  E(vib)   ...       0.01
freq.    1195.88  E(vib)   ...       0.01
freq.    1205.18  E(vib)   ...       0.01
freq.    1213.21  E(vib)   ...       0.01
freq.    1229.08  E(vib)   ...       0.01
freq.    1242.79  E(vib)   ...       0.01
freq.    1258.93  E(vib)   ...       0.01
freq.    1291.65  E(vib)   ...       0.01
freq.    1305.14  E(vib)   ...       0.01
freq.    1314.24  E(vib)   ...       0.01
freq.    1329.18  E(vib)   ...       0.01
freq.    1369.02  E(vib)   ...       0.01
freq.    1385.62  E(vib)   ...       0.00
freq.    1391.49  E(vib)   ...       0.00
freq.    1465.52  E(vib)   ...       0.00
freq.    1465.85  E(vib)   ...       0.00
freq.    1469.38  E(vib)   ...       0.00
freq.    1472.70  E(vib)   ...       0.00
freq.    1473.92  E(vib)   ...       0.00
freq.    1483.40  E(vib)   ...       0.00
freq.    1497.97  E(vib)   ...       0.00
freq.    1535.84  E(vib)   ...       0.00
freq.    1648.85  E(vib)   ...       0.00
freq.    1663.14  E(vib)   ...       0.00
freq.    1740.54  E(vib)   ...       0.00
freq.    1803.45  E(vib)   ...       0.00
freq.    3037.63  E(vib)   ...       0.00
freq.    3074.90  E(vib)   ...       0.00
freq.    3104.90  E(vib)   ...       0.00
freq.    3109.10  E(vib)   ...       0.00
freq.    3141.63  E(vib)   ...       0.00
freq.    3160.00  E(vib)   ...       0.00
freq.    3166.55  E(vib)   ...       0.00
freq.    3188.48  E(vib)   ...       0.00
freq.    3193.65  E(vib)   ...       0.00
freq.    3196.41  E(vib)   ...       0.00
freq.    3214.03  E(vib)   ...       0.00
freq.    3230.84  E(vib)   ...       0.00
freq.    3279.12  E(vib)   ...       0.00

------------
INNER ENERGY
------------

The inner energy is: U= E(el) + E(ZPE) + E(vib) + E(rot) + E(trans)
    E(el)   - is the total energy from the electronic structure calculation
              = E(kin-el) + E(nuc-el) + E(el-el) + E(nuc-nuc)
    E(ZPE)  - the the zero temperature vibrational energy from the frequency calculation
    E(vib)  - the the finite temperature correction to E(ZPE) due to population
              of excited vibrational states
    E(rot)  - is the rotational thermal energy
    E(trans)- is the translational thermal energy

Summary of contributions to the inner energy U:
Electronic energy                ...   -895.25069709 Eh
Zero point energy                ...      0.24246025 Eh     152.15 kcal/mol
Thermal vibrational correction   ...      0.01361558 Eh       8.54 kcal/mol
Thermal rotational correction    ...      0.00141627 Eh       0.89 kcal/mol
Thermal translational correction ...      0.00141627 Eh       0.89 kcal/mol
-----------------------------------------------------------------------
Total thermal energy                   -894.99178871 Eh

Summary of corrections to the electronic energy:
(perhaps to be used in another calculation)
Total thermal correction                  0.01644812 Eh      10.32 kcal/mol
Non-thermal (ZPE) correction              0.24246025 Eh     152.15 kcal/mol
-----------------------------------------------------------------------
Total correction                          0.25890838 Eh     162.47 kcal/mol

--------
ENTHALPY
--------

The enthalpy is H = U + kB*T
                kB is Boltzmann's constant
Total free energy                 ...   -894.99178871 Eh
Thermal Enthalpy correction       ...      0.00094421 Eh       0.59 kcal/mol
-----------------------------------------------------------------------
Total Enthalpy                    ...   -894.99084450 Eh

Note: Only C1 symmetry has been detected, increase convergence thresholds
      if your molecule has a higher symmetry. Symmetry factor of 1.0 is
      used for the rotational entropy correction.

Note: Rotational entropy computed according to Herzberg
Infrared and Raman Spectra, Chapter V,1, Van Nostrand Reinhold, 1945
Point Group:  C1, Symmetry Number:   1
Rotational constants in cm-1:     0.019055     0.012120     0.007816

Vibrational entropy computed according to the QRRHO of S. Grimme
Chem.Eur.J. 2012 18 9955

                             ****ORCA TERMINATED NORMALLY****
TOTAL RUN TIME: 0 days 0 hours 28 minutes 34 seconds 400 msec
