                         Program Version 5.0.4 -  RELEASE  -
|  1> %pal nprocs 24 end
|  2> %maxcore 3500
|  3> ! PBE0 D3BJ def2-TZVP TightSCF OPT FREQ TightOpt
|  4> ! CPCM(dmso)
|  5> %scf
|  6> MaxIter 800
|  7> end
|  8> %geom
|  9> MaxIter 800
| 10> MaxStep 0.2
| 11> end
| 12> *xyz 0 1
| 13> C       -1.505215000      0.847006000     -0.002200000
| 14> C       -1.919067000      1.741285000     -1.155594000
| 15> O       -3.035724000      2.146343000     -1.351081000
| 16> O       -0.872524000      1.995741000     -1.926177000
| 17> C       -1.120860000      2.775483000     -3.100995000
| 18> H       -0.585285000      1.227744000      0.450843000
| 19> H       -1.837495000      2.265615000     -3.745043000
| 20> H       -0.159887000      2.868512000     -3.599677000
| 21> C       -2.702541000     -1.142963000     -0.083190000
| 22> C       -1.357855000     -0.623849000     -0.460373000
| 23> C       -0.224489000     -1.363026000      0.208305000
| 24> C       -0.358768000     -1.893206000      1.482186000
| 25> C        0.692114000     -2.552386000      2.106534000
| 26> C        1.896496000     -2.687119000      1.437166000
| 27> C        2.057669000     -2.167023000      0.159981000
| 28> C        1.003603000     -1.499947000     -0.455157000
| 29> O        1.082180000     -0.950980000     -1.686613000
| 30> C        2.285967000     -1.107209000     -2.412973000
| 31> N       -3.308691000     -0.326239000      0.714400000
| 32> O       -4.389618000     -0.361964000      1.301131000
| 33> H       -1.216286000     -0.669046000     -1.541345000
| 34> H       -1.308568000     -1.791038000      1.997547000
| 35> H        0.565577000     -2.958059000      3.103013000
| 36> H        2.728604000     -3.199463000      1.906865000
| 37> H        3.007796000     -2.274945000     -0.345352000
| 38> H        3.123583000     -0.632490000     -1.894728000
| 39> H        2.125390000     -0.614120000     -3.369552000
| 40> H        2.511589000     -2.164508000     -2.579094000
| 41> O       -2.519962000      0.833284000      0.982175000
| 42> H       -1.505399000      3.757746000     -2.826871000
| 43> C       -3.296543000     -2.428863000     -0.492595000
| 44> H       -3.471523000     -2.439308000     -1.572388000
| 45> H       -2.608898000     -3.247696000     -0.264354000
| 46> H       -4.240084000     -2.600161000      0.023340000
| 47> *
| 48>
| 49>                          ****END OF INPUT****
 Total Charge           Charge          ....    0
 Multiplicity           Mult            ....    1
 Number of Electrons    NEL             ....  140
Dispersion correction           -0.036177626
FINAL SINGLE POINT ENERGY      -934.542645679705
Dispersion correction            ... done
Dispersion correction           -0.036202008
FINAL SINGLE POINT ENERGY      -934.542684595640
Dispersion correction            ... done
Dispersion correction           -0.036201666
FINAL SINGLE POINT ENERGY      -934.542705572980
Dispersion correction            ... done
FINAL SINGLE POINT ENERGY      -934.542721218436
FINAL SINGLE POINT ENERGY      -934.542731401701
FINAL SINGLE POINT ENERGY      -934.542739336232
FINAL SINGLE POINT ENERGY      -934.542744063362
Dispersion correction           -0.036248962
FINAL SINGLE POINT ENERGY      -934.542745346247
Dispersion correction            ... done
Dispersion correction           -0.036249420
FINAL SINGLE POINT ENERGY      -934.542745457573
Dispersion correction            ... done
                    ***********************HURRAY********************

CARTESIAN COORDINATES (ANGSTROEM)
---------------------------------
  C     -1.472888    0.833017   -0.030969
  C     -1.890141    1.713167   -1.196949
  O     -3.015184    2.087289   -1.402660
  O     -0.845290    1.980038   -1.962906
  C     -1.106915    2.733600   -3.153043
  H     -0.541218    1.200275    0.398330
  H     -1.812837    2.197758   -3.787582
  H     -0.147160    2.835884   -3.651993
  C     -2.716495   -1.130507   -0.047887
  C     -1.368839   -0.650589   -0.462217
  C     -0.237327   -1.398058    0.199988
  C     -0.378902   -1.969200    1.455150
  C      0.674619   -2.632606    2.070846
  C      1.889878   -2.725620    1.413804
  C      2.059638   -2.161396    0.155699
  C      1.000565   -1.495265   -0.453038
  O      1.079666   -0.910188   -1.667077
  C      2.307922   -0.983051   -2.366516
  N     -3.287352   -0.284747    0.745253
  O     -4.355577   -0.281659    1.353071
  H     -1.250217   -0.719474   -1.545114
  H     -1.335184   -1.894775    1.962988
  H      0.542237   -3.072797    3.051736
  H      2.723346   -3.241729    1.876903
  H      3.016351   -2.242698   -0.342391
  H      3.110135   -0.496023   -1.804910
  H      2.149922   -0.457120   -3.305736
  H      2.585047   -2.021120   -2.570703
  O     -2.467079    0.864521    0.971785
  H     -1.510883    3.712745   -2.896450
  C     -3.350361   -2.408210   -0.422515
  H     -3.554394   -2.429201   -1.497038
  H     -2.676399   -3.239887   -0.200521
  H     -4.283398   -2.549221    0.120797

 Multiplicity           Mult            ....    1
 Number of Electrons    NEL             ....  140
 Basis Dimension        Dim             ....  679

ORBITAL ENERGIES
----------------

  NO   OCC          E(Eh)            E(eV)
   0   2.0000     -19.277368      -524.5639
   1   2.0000     -19.269225      -524.3423
   2   2.0000     -19.247127      -523.7409
   3   2.0000     -19.211750      -522.7783
   4   2.0000     -19.209920      -522.7285
   5   2.0000     -14.577800      -396.6821
   6   2.0000     -10.362721      -281.9840
   7   2.0000     -10.309453      -280.5345
   8   2.0000     -10.293087      -280.0891
   9   2.0000     -10.285179      -279.8740
  10   2.0000     -10.272991      -279.5423
  11   2.0000     -10.267376      -279.3895
  12   2.0000     -10.267154      -279.3835
  13   2.0000     -10.242428      -278.7106
  14   2.0000     -10.232260      -278.4339
  15   2.0000     -10.230871      -278.3961
  16   2.0000     -10.230582      -278.3883
  17   2.0000     -10.227244      -278.2975
  18   2.0000     -10.222795      -278.1764
  19   2.0000      -1.223353       -33.2891
  20   2.0000      -1.159069       -31.5399
  21   2.0000      -1.109934       -30.2028
  22   2.0000      -1.093907       -29.7667
  23   2.0000      -1.065385       -28.9906
  24   2.0000      -0.920870       -25.0582
  25   2.0000      -0.890572       -24.2337
  26   2.0000      -0.840202       -22.8630
  27   2.0000      -0.793107       -21.5815
  28   2.0000      -0.779950       -21.2235
  29   2.0000      -0.761090       -20.7103
  30   2.0000      -0.749275       -20.3888
  31   2.0000      -0.721295       -19.6274
  32   2.0000      -0.697281       -18.9740
  33   2.0000      -0.631490       -17.1837
  34   2.0000      -0.630502       -17.1568
  35   2.0000      -0.613269       -16.6879
  36   2.0000      -0.583485       -15.8774
  37   2.0000      -0.575122       -15.6499
  38   2.0000      -0.555372       -15.1124
  39   2.0000      -0.542828       -14.7711
  40   2.0000      -0.531576       -14.4649
  41   2.0000      -0.517888       -14.0925
  42   2.0000      -0.515330       -14.0228
  43   2.0000      -0.509099       -13.8533
  44   2.0000      -0.500997       -13.6328
  45   2.0000      -0.490435       -13.3454
  46   2.0000      -0.477289       -12.9877
  47   2.0000      -0.474225       -12.9043
  48   2.0000      -0.459206       -12.4956
  49   2.0000      -0.450912       -12.2699
  50   2.0000      -0.447233       -12.1698
  51   2.0000      -0.436729       -11.8840
  52   2.0000      -0.431404       -11.7391
  53   2.0000      -0.422101       -11.4859
  54   2.0000      -0.415691       -11.3115
  55   2.0000      -0.408786       -11.1236
  56   2.0000      -0.401531       -10.9262
  57   2.0000      -0.385926       -10.5016
  58   2.0000      -0.384764       -10.4700
  59   2.0000      -0.380576       -10.3560
  60   2.0000      -0.369215       -10.0468
  61   2.0000      -0.347509        -9.4562
  62   2.0000      -0.344805        -9.3826
  63   2.0000      -0.342013        -9.3066
  64   2.0000      -0.335370        -9.1259
  65   2.0000      -0.314924        -8.5695
  66   2.0000      -0.307442        -8.3659
  67   2.0000      -0.272408        -7.4126
  68   2.0000      -0.245143        -6.6707
  69   2.0000      -0.241937        -6.5834
  70   0.0000      -0.023935        -0.6513
  71   0.0000      -0.011030        -0.3001
  72   0.0000      -0.001767        -0.0481
  73   0.0000       0.004518         0.1229
  74   0.0000       0.042524         1.1571

MULLIKEN ATOMIC CHARGES
-----------------------
   0 C :    0.106666
   1 C :    0.267879
   2 O :   -0.385492
   3 O :   -0.221527
   4 C :   -0.255663
   5 H :    0.168018
   6 H :    0.157011
   7 H :    0.164740
   8 C :   -0.090759
   9 C :    0.104339
  10 C :   -0.038768
  11 C :   -0.182474
  12 C :   -0.204481
  13 C :   -0.150795
  14 C :   -0.288939
  15 C :    0.215954
  16 O :   -0.259828
  17 C :   -0.279308
  18 N :    0.421677
  19 O :   -0.490266
  20 H :    0.142025
  21 H :    0.169020
  22 H :    0.148228
  23 H :    0.153366
  24 H :    0.165915
  25 H :    0.151134
  26 H :    0.162445
  27 H :    0.151575
  28 O :   -0.243250
  29 H :    0.157222
  30 C :   -0.409457
  31 H :    0.165935
  32 H :    0.170267
  33 H :    0.157590
Sum of atomic charges:    0.0000000

LOEWDIN ATOMIC CHARGES
----------------------
   0 C :   -0.240948
   1 C :   -0.484158
   2 O :    0.090656
   3 O :    0.270622
   4 C :   -0.296712
   5 H :    0.176320
   6 H :    0.120669
   7 H :    0.123383
   8 C :   -0.221231
   9 C :   -0.146145
  10 C :   -0.106011
  11 C :   -0.107426
  12 C :   -0.164455
  13 C :   -0.144208
  14 C :   -0.139418
  15 C :   -0.230120
  16 O :    0.247498
  17 C :   -0.324765
  18 N :    0.068450
  19 O :   -0.162193
  20 H :    0.187522
  21 H :    0.164168
  22 H :    0.152489
  23 H :    0.154996
  24 H :    0.160561
  25 H :    0.117630
  26 H :    0.121830
  27 H :    0.117678
  28 O :    0.181174
  29 H :    0.120719
  30 C :   -0.249836
  31 H :    0.149577
  32 H :    0.149129
  33 H :    0.142552

  Mayer bond orders larger than 0.100000
B(  0-C ,  1-C ) :   0.9617 B(  0-C ,  5-H ) :   0.9227 B(  0-C ,  9-C ) :   0.9227
B(  0-C , 28-O ) :   0.9932 B(  1-C ,  2-O ) :   2.0086 B(  1-C ,  3-O ) :   1.2442
B(  3-O ,  4-C ) :   0.8843 B(  4-C ,  6-H ) :   0.9661 B(  4-C ,  7-H ) :   0.9622
B(  4-C , 29-H ) :   0.9663 B(  8-C ,  9-C ) :   0.9507 B(  8-C , 18-N ) :   1.6576
B(  8-C , 19-O ) :   0.2502 B(  8-C , 30-C ) :   0.9823 B(  9-C , 10-C ) :   0.8799
B(  9-C , 20-H ) :   0.9427 B( 10-C , 11-C ) :   1.3539 B( 10-C , 15-C ) :   1.3195
B( 11-C , 12-C ) :   1.3999 B( 11-C , 21-H ) :   0.9791 B( 12-C , 13-C ) :   1.4133
B( 12-C , 22-H ) :   0.9802 B( 13-C , 14-C ) :   1.3906 B( 13-C , 23-H ) :   0.9637
B( 14-C , 15-C ) :   1.3751 B( 14-C , 24-H ) :   0.9589 B( 15-C , 16-O ) :   1.1382
B( 16-O , 17-C ) :   0.9374 B( 17-C , 25-H ) :   0.9619 B( 17-C , 26-H ) :   0.9644
B( 17-C , 27-H ) :   0.9620 B( 18-N , 19-O ) :   1.4275 B( 18-N , 28-O ) :   0.8383
B( 30-C , 31-H ) :   0.9523 B( 30-C , 32-H ) :   0.9466 B( 30-C , 33-H ) :   0.9648

Dispersion correction           -0.036248895
FINAL SINGLE POINT ENERGY      -934.542745082756

DIPOLE MOMENT
-------------
                                X             Y             Z
Electronic contribution:     -7.21547       4.92677       6.73342
Nuclear contribution   :     10.79473      -6.04210      -9.01436
                        -----------------------------------------
Total Dipole Moment    :      3.57927      -1.11533      -2.28094
                        -----------------------------------------
Magnitude (a.u.)       :      4.38837
Magnitude (Debye)      :     11.15435

Dispersion correction in the Hessian             ... done   (      0.6 sec)

VIBRATIONAL FREQUENCIES
-----------------------

Scaling factor for frequencies =  1.000000000  (already applied!)

   0:         0.00 cm**-1
   1:         0.00 cm**-1
   2:         0.00 cm**-1
   3:         0.00 cm**-1
   4:         0.00 cm**-1
   5:         0.00 cm**-1
   6:        18.64 cm**-1
   7:        31.19 cm**-1
   8:        49.21 cm**-1
   9:        69.26 cm**-1
  10:        71.54 cm**-1
  11:        86.35 cm**-1
  12:        98.69 cm**-1
  13:       103.31 cm**-1
  14:       142.76 cm**-1
  15:       149.84 cm**-1
  16:       171.29 cm**-1
  17:       185.17 cm**-1
  18:       213.88 cm**-1
  19:       248.74 cm**-1
  20:       255.40 cm**-1
  21:       285.50 cm**-1
  22:       309.80 cm**-1
  23:       316.89 cm**-1
  24:       349.97 cm**-1
  25:       367.78 cm**-1
  26:       406.59 cm**-1
  27:       475.88 cm**-1
  28:       494.60 cm**-1
  29:       527.24 cm**-1
  30:       569.73 cm**-1
  31:       582.43 cm**-1
  32:       606.23 cm**-1
  33:       635.78 cm**-1
  34:       669.67 cm**-1
  35:       712.85 cm**-1
  36:       727.15 cm**-1
  37:       765.84 cm**-1
  38:       769.57 cm**-1
  39:       780.36 cm**-1
  40:       814.15 cm**-1
  41:       842.99 cm**-1
  42:       876.16 cm**-1
  43:       895.42 cm**-1
  44:       915.85 cm**-1
  45:       957.80 cm**-1
  46:       968.96 cm**-1
  47:       993.34 cm**-1
  48:      1002.02 cm**-1
  49:      1009.40 cm**-1
  50:      1037.09 cm**-1
  51:      1054.59 cm**-1
  52:      1071.47 cm**-1
  53:      1084.02 cm**-1
  54:      1114.62 cm**-1
  55:      1137.37 cm**-1
  56:      1171.27 cm**-1
  57:      1171.85 cm**-1
  58:      1174.72 cm**-1
  59:      1193.87 cm**-1
  60:      1205.45 cm**-1
  61:      1212.04 cm**-1
  62:      1230.84 cm**-1
  63:      1235.72 cm**-1
  64:      1273.47 cm**-1
  65:      1290.14 cm**-1
  66:      1305.30 cm**-1
  67:      1321.24 cm**-1
  68:      1341.13 cm**-1
  69:      1365.24 cm**-1
  70:      1383.02 cm**-1
  71:      1394.30 cm**-1
  72:      1430.93 cm**-1
  73:      1450.17 cm**-1
  74:      1460.47 cm**-1
  75:      1465.71 cm**-1
  76:      1466.32 cm**-1
  77:      1469.38 cm**-1
  78:      1473.16 cm**-1
  79:      1473.84 cm**-1
  80:      1483.35 cm**-1
  81:      1498.17 cm**-1
  82:      1536.30 cm**-1
  83:      1649.08 cm**-1
  84:      1663.07 cm**-1
  85:      1760.20 cm**-1
  86:      1804.42 cm**-1
  87:      3038.23 cm**-1
  88:      3051.05 cm**-1
  89:      3074.70 cm**-1
  90:      3104.95 cm**-1
  91:      3109.85 cm**-1
  92:      3111.49 cm**-1
  93:      3139.18 cm**-1
  94:      3159.92 cm**-1
  95:      3165.39 cm**-1
  96:      3166.51 cm**-1
  97:      3185.19 cm**-1
  98:      3193.22 cm**-1
  99:      3196.21 cm**-1
 100:      3214.38 cm**-1
 101:      3230.98 cm**-1

IR SPECTRUM
-----------

 Mode   freq       eps      Int      T**2         TX        TY        TZ
       cm**-1   L/(mol*cm) km/mol    a.u.
----------------------------------------------------------------------------
  6:     18.64   0.000255    1.29  0.004266  ( 0.047170  0.013852  0.042998)
  7:     31.19   0.000405    2.05  0.004050  (-0.023920 -0.012228 -0.057690)
  8:     49.21   0.000232    1.17  0.001470  ( 0.011271 -0.036325 -0.004870)
  9:     69.26   0.000025    0.13  0.000113  ( 0.009170 -0.005151 -0.001435)
 10:     71.54   0.000445    2.25  0.001939  (-0.028793  0.030984 -0.012251)
 11:     86.35   0.000049    0.25  0.000178  (-0.003561 -0.000709 -0.012837)
 12:     98.69   0.001044    5.27  0.003300  ( 0.018157  0.051730  0.017166)
 13:    103.31   0.000883    4.46  0.002667  (-0.017288 -0.002742 -0.048583)
 14:    142.76   0.000282    1.42  0.000616  (-0.002452  0.019415 -0.015276)
 15:    149.84   0.000444    2.24  0.000924  (-0.010911  0.003505 -0.028158)
 16:    171.29   0.000083    0.42  0.000151  ( 0.001290 -0.005925 -0.010696)
 17:    185.17   0.000927    4.68  0.001562  (-0.019245 -0.033097 -0.009816)
 18:    213.88   0.001018    5.15  0.001486  (-0.021184 -0.028731 -0.014545)
 19:    248.74   0.001314    6.64  0.001648  ( 0.015307 -0.013159 -0.035221)
 20:    255.40   0.000562    2.84  0.000687  (-0.022918 -0.005782  0.011311)
 21:    285.50   0.002153   10.88  0.002353  (-0.002350 -0.047996 -0.006610)
 22:    309.80   0.002012   10.17  0.002027  ( 0.015523  0.033786  0.025388)
 23:    316.89   0.001964    9.92  0.001934  ( 0.027797  0.033784 -0.004449)
 24:    349.97   0.003488   17.62  0.003110  (-0.029542 -0.012766  0.045542)
 25:    367.78   0.000860    4.35  0.000730  (-0.012403 -0.023463  0.005069)
 26:    406.59   0.000742    3.75  0.000570  ( 0.009538 -0.013777  0.016996)
 27:    475.88   0.001577    7.97  0.001034  (-0.010932 -0.028852 -0.009063)
 28:    494.60   0.001628    8.23  0.001027  ( 0.029551 -0.005179  0.011279)
 29:    527.24   0.002694   13.62  0.001595  (-0.020652 -0.019230 -0.028256)
 30:    569.73   0.000712    3.60  0.000390  (-0.009857 -0.000261 -0.017103)
 31:    582.43   0.001341    6.78  0.000719  ( 0.016080 -0.012862  0.017163)
 32:    606.23   0.003329   16.82  0.001714  (-0.038874 -0.007294  0.012220)
 33:    635.78   0.007359   37.19  0.003612  (-0.039729 -0.041584  0.017446)
 34:    669.67   0.003176   16.05  0.001480  (-0.000080 -0.031934  0.021453)
 35:    712.85   0.002101   10.62  0.000920  ( 0.017345 -0.015656  0.019333)
 36:    727.15   0.003068   15.51  0.001317  (-0.036007  0.001739 -0.004164)
 37:    765.84   0.003475   17.56  0.001416  (-0.022987  0.005927 -0.029195)
 38:    769.57   0.030332  153.29  0.012300  (-0.028784 -0.097752 -0.043770)
 39:    780.36   0.000149    0.75  0.000060  ( 0.000355  0.007306 -0.002468)
 40:    814.15   0.007415   37.47  0.002842  (-0.001357 -0.037233  0.038133)
 41:    842.99   0.005362   27.10  0.001985  (-0.012141 -0.042381 -0.006426)
 42:    876.16   0.000508    2.57  0.000181  (-0.001850 -0.010685 -0.007964)
 43:    895.42   0.007276   36.77  0.002536  ( 0.020027  0.045311 -0.009029)
 44:    915.85   0.032333  163.40  0.011017  (-0.086175 -0.053138  0.027696)
 45:    957.80   0.005649   28.55  0.001841  ( 0.039978  0.015477  0.001673)
 46:    968.96   0.001187    6.00  0.000382  (-0.016513  0.010012  0.003077)
 47:    993.34   0.000096    0.49  0.000030  ( 0.001543  0.004874 -0.002013)
 48:   1002.02   0.008756   44.25  0.002727  (-0.034597 -0.038813  0.004859)
 49:   1009.40   0.008557   43.24  0.002645  (-0.009548 -0.047896  0.016127)
 50:   1037.09   0.002030   10.26  0.000611  ( 0.000759  0.020441 -0.013867)
 51:   1054.59   0.005366   27.12  0.001588  ( 0.000664  0.027412 -0.028911)
 52:   1071.47   0.012135   61.32  0.003534  (-0.054365  0.008810  0.022386)
 53:   1084.02   0.006937   35.06  0.001997  ( 0.011517  0.015002 -0.040488)
 54:   1114.62   0.017533   88.61  0.004909  ( 0.035363  0.002526 -0.060431)
 55:   1137.37   0.012071   61.00  0.003312  (-0.037147 -0.001718  0.043922)
 56:   1171.27   0.000183    0.92  0.000049  ( 0.000585 -0.005165 -0.004657)
 57:   1171.85   0.000167    0.84  0.000044  (-0.001785 -0.006421 -0.000112)
 58:   1174.72   0.002024   10.23  0.000538  (-0.020212  0.002506  0.011079)
 59:   1193.87   0.001042    5.27  0.000272  ( 0.001234 -0.016437 -0.000865)
 60:   1205.45   0.005062   25.58  0.001310  (-0.016644 -0.016323  0.027692)
 61:   1212.04   0.002324   11.75  0.000598  (-0.019439 -0.010713  0.010285)
 62:   1230.84   0.005189   26.23  0.001316  ( 0.019071  0.028752 -0.011196)
 63:   1235.72   0.036740  185.67  0.009278  (-0.065319 -0.020507  0.067757)
 64:   1273.47   0.040809  206.23  0.010000  ( 0.014489  0.064648 -0.074907)
 65:   1290.14   0.102943  520.23  0.024900  ( 0.102783  0.033019 -0.115090)
 66:   1305.30   0.020115  101.65  0.004809  ( 0.006626 -0.024048  0.064704)
 67:   1321.24   0.022781  115.13  0.005381  (-0.043827 -0.018496  0.055837)
 68:   1341.13   0.021411  108.20  0.004982  (-0.060930  0.018916  0.030198)
 69:   1365.24   0.009700   49.02  0.002217  ( 0.040379 -0.022822 -0.008122)
 70:   1383.02   0.002974   15.03  0.000671  (-0.010307 -0.018823  0.014513)
 71:   1394.30   0.026111  131.96  0.005844  (-0.043216 -0.023139  0.058660)
 72:   1430.93   0.009014   45.55  0.001966  (-0.026545  0.024988  0.025234)
 73:   1450.17   0.004762   24.07  0.001025  (-0.016598  0.021017 -0.017538)
 74:   1460.47   0.003112   15.73  0.000665  (-0.021026  0.002631  0.014693)
 75:   1465.71   0.005190   26.23  0.001105  (-0.006150 -0.009579  0.031233)
 76:   1466.32   0.003590   18.14  0.000764  (-0.002574 -0.025540 -0.010252)
 77:   1469.38   0.009536   48.19  0.002025  (-0.007695 -0.025250  0.036448)
 78:   1473.16   0.002930   14.80  0.000621  ( 0.024767 -0.000778 -0.002566)
 79:   1473.84   0.003021   15.27  0.000640  ( 0.006723  0.019785  0.014251)
 80:   1483.35   0.004909   24.81  0.001033  (-0.002604 -0.015325  0.028128)
 81:   1498.17   0.014055   71.03  0.002928  ( 0.019560  0.014880 -0.048203)
 82:   1536.30   0.038504  194.58  0.007821  (-0.020198 -0.032366  0.079785)
 83:   1649.08   0.007983   40.34  0.001511  ( 0.030932 -0.001680 -0.023475)
 84:   1663.07   0.016182   81.78  0.003037  (-0.009978 -0.017995  0.051119)
 85:   1760.20   0.119736  605.09  0.021228  ( 0.114820 -0.053693 -0.071842)
 86:   1804.42   0.099926  504.98  0.017281  (-0.126798  0.034160  0.006074)
 87:   3038.23   0.012199   61.65  0.001253  (-0.029155  0.001218  0.020038)
 88:   3051.05   0.002319   11.72  0.000237  ( 0.000378  0.013025  0.008206)
 89:   3074.70   0.005389   27.23  0.000547  (-0.001461  0.012726 -0.019567)
 90:   3104.95   0.000468    2.37  0.000047  (-0.006024  0.001344 -0.002991)
 91:   3109.85   0.007266   36.72  0.000729  (-0.008032 -0.023220 -0.011202)
 92:   3111.49   0.001227    6.20  0.000123  ( 0.006168 -0.005360  0.007502)
 93:   3139.18   0.000582    2.94  0.000058  (-0.005918 -0.002405  0.004130)
 94:   3159.92   0.003365   17.01  0.000332  ( 0.003235  0.015606  0.008851)
 95:   3165.39   0.000691    3.49  0.000068  ( 0.007438  0.002669 -0.002378)
 96:   3166.51   0.003783   19.12  0.000373  (-0.003756  0.009356 -0.016469)
 97:   3185.19   0.000606    3.06  0.000059  (-0.007102  0.001279  0.002695)
 98:   3193.22   0.001903    9.62  0.000186  (-0.012779 -0.000509  0.004738)
 99:   3196.21   0.001340    6.77  0.000131  (-0.010456  0.004323 -0.001677)
100:   3214.38   0.002893   14.62  0.000281  (-0.001340  0.008076 -0.014624)
101:   3230.98   0.000396    2.00  0.000038  (-0.005588  0.000963  0.002472)

--------------------------
THERMOCHEMISTRY AT 298.15K
--------------------------

Temperature         ... 298.15 K
Pressure            ... 1.00 atm
Total Mass          ... 265.26 AMU

Throughout the following assumptions are being made:
  (1) The electronic state is orbitally nondegenerate
  (2) There are no thermally accessible electronically excited states
  (3) Hindered rotations indicated by low frequency modes are not
      treated as such but are treated as vibrations and this may
      cause some error
  (4) All equations used are the standard statistical mechanics
      equations for an ideal gas
  (5) All vibrations are strictly harmonic

freq.      18.64  E(vib)   ...       0.57
freq.      31.19  E(vib)   ...       0.55
freq.      49.21  E(vib)   ...       0.52
freq.      69.26  E(vib)   ...       0.50
freq.      71.54  E(vib)   ...       0.50
freq.      86.35  E(vib)   ...       0.48
freq.      98.69  E(vib)   ...       0.46
freq.     103.31  E(vib)   ...       0.46
freq.     142.76  E(vib)   ...       0.41
freq.     149.84  E(vib)   ...       0.40
freq.     171.29  E(vib)   ...       0.38
freq.     185.17  E(vib)   ...       0.37
freq.     213.88  E(vib)   ...       0.34
freq.     248.74  E(vib)   ...       0.31
freq.     255.40  E(vib)   ...       0.30
freq.     285.50  E(vib)   ...       0.28
freq.     309.80  E(vib)   ...       0.26
freq.     316.89  E(vib)   ...       0.25
freq.     349.97  E(vib)   ...       0.23
freq.     367.78  E(vib)   ...       0.21
freq.     406.59  E(vib)   ...       0.19
freq.     475.88  E(vib)   ...       0.15
freq.     494.60  E(vib)   ...       0.14
freq.     527.24  E(vib)   ...       0.13
freq.     569.73  E(vib)   ...       0.11
freq.     582.43  E(vib)   ...       0.11
freq.     606.23  E(vib)   ...       0.10
freq.     635.78  E(vib)   ...       0.09
freq.     669.67  E(vib)   ...       0.08
freq.     712.85  E(vib)   ...       0.07
freq.     727.15  E(vib)   ...       0.06
freq.     765.84  E(vib)   ...       0.06
freq.     769.57  E(vib)   ...       0.06
freq.     780.36  E(vib)   ...       0.05
freq.     814.15  E(vib)   ...       0.05
freq.     842.99  E(vib)   ...       0.04
freq.     876.16  E(vib)   ...       0.04
freq.     895.42  E(vib)   ...       0.03
freq.     915.85  E(vib)   ...       0.03
freq.     957.80  E(vib)   ...       0.03
freq.     968.96  E(vib)   ...       0.03
freq.     993.34  E(vib)   ...       0.02
freq.    1002.02  E(vib)   ...       0.02
freq.    1009.40  E(vib)   ...       0.02
freq.    1037.09  E(vib)   ...       0.02
freq.    1054.59  E(vib)   ...       0.02
freq.    1071.47  E(vib)   ...       0.02
freq.    1084.02  E(vib)   ...       0.02
freq.    1114.62  E(vib)   ...       0.01
freq.    1137.37  E(vib)   ...       0.01
freq.    1171.27  E(vib)   ...       0.01
freq.    1171.85  E(vib)   ...       0.01
freq.    1174.72  E(vib)   ...       0.01
freq.    1193.87  E(vib)   ...       0.01
freq.    1205.45  E(vib)   ...       0.01
freq.    1212.04  E(vib)   ...       0.01
freq.    1230.84  E(vib)   ...       0.01
freq.    1235.72  E(vib)   ...       0.01
freq.    1273.47  E(vib)   ...       0.01
freq.    1290.14  E(vib)   ...       0.01
freq.    1305.30  E(vib)   ...       0.01
freq.    1321.24  E(vib)   ...       0.01
freq.    1341.13  E(vib)   ...       0.01
freq.    1365.24  E(vib)   ...       0.01
freq.    1383.02  E(vib)   ...       0.01
freq.    1394.30  E(vib)   ...       0.00
freq.    1430.93  E(vib)   ...       0.00
freq.    1450.17  E(vib)   ...       0.00
freq.    1460.47  E(vib)   ...       0.00
freq.    1465.71  E(vib)   ...       0.00
freq.    1466.32  E(vib)   ...       0.00
freq.    1469.38  E(vib)   ...       0.00
freq.    1473.16  E(vib)   ...       0.00
freq.    1473.84  E(vib)   ...       0.00
freq.    1483.35  E(vib)   ...       0.00
freq.    1498.17  E(vib)   ...       0.00
freq.    1536.30  E(vib)   ...       0.00
freq.    1649.08  E(vib)   ...       0.00
freq.    1663.07  E(vib)   ...       0.00
freq.    1760.20  E(vib)   ...       0.00
freq.    1804.42  E(vib)   ...       0.00
freq.    3038.23  E(vib)   ...       0.00
freq.    3051.05  E(vib)   ...       0.00
freq.    3074.70  E(vib)   ...       0.00
freq.    3104.95  E(vib)   ...       0.00
freq.    3109.85  E(vib)   ...       0.00
freq.    3111.49  E(vib)   ...       0.00
freq.    3139.18  E(vib)   ...       0.00
freq.    3159.92  E(vib)   ...       0.00
freq.    3165.39  E(vib)   ...       0.00
freq.    3166.51  E(vib)   ...       0.00
freq.    3185.19  E(vib)   ...       0.00
freq.    3193.22  E(vib)   ...       0.00
freq.    3196.21  E(vib)   ...       0.00
freq.    3214.38  E(vib)   ...       0.00
freq.    3230.98  E(vib)   ...       0.00

------------
INNER ENERGY
------------

The inner energy is: U= E(el) + E(ZPE) + E(vib) + E(rot) + E(trans)
    E(el)   - is the total energy from the electronic structure calculation
              = E(kin-el) + E(nuc-el) + E(el-el) + E(nuc-nuc)
    E(ZPE)  - the the zero temperature vibrational energy from the frequency calculation
    E(vib)  - the the finite temperature correction to E(ZPE) due to population
              of excited vibrational states
    E(rot)  - is the rotational thermal energy
    E(trans)- is the translational thermal energy

Summary of contributions to the inner energy U:
Electronic energy                ...   -934.54274508 Eh
Zero point energy                ...      0.27000798 Eh     169.43 kcal/mol
Thermal vibrational correction   ...      0.01553822 Eh       9.75 kcal/mol
Thermal rotational correction    ...      0.00141627 Eh       0.89 kcal/mol
Thermal translational correction ...      0.00141627 Eh       0.89 kcal/mol
-----------------------------------------------------------------------
Total thermal energy                   -934.25436633 Eh

Summary of corrections to the electronic energy:
(perhaps to be used in another calculation)
Total thermal correction                  0.01837077 Eh      11.53 kcal/mol
Non-thermal (ZPE) correction              0.27000798 Eh     169.43 kcal/mol
-----------------------------------------------------------------------
Total correction                          0.28837875 Eh     180.96 kcal/mol

--------
ENTHALPY
--------

The enthalpy is H = U + kB*T
                kB is Boltzmann's constant
Total free energy                 ...   -934.25436633 Eh
Thermal Enthalpy correction       ...      0.00094421 Eh       0.59 kcal/mol
-----------------------------------------------------------------------
Total Enthalpy                    ...   -934.25342213 Eh

Note: Only C1 symmetry has been detected, increase convergence thresholds
      if your molecule has a higher symmetry. Symmetry factor of 1.0 is
      used for the rotational entropy correction.

Rotational constants in cm-1:     0.015959     0.011267     0.007553

                             ****ORCA TERMINATED NORMALLY****
TOTAL RUN TIME: 0 days 0 hours 35 minutes 11 seconds 457 msec
