                         Program Version 5.0.4 -  RELEASE  -
|  1> %pal nprocs 24 end
|  2> %maxcore 3500
|  3> ! PBE0 D3BJ def2-TZVP TightSCF OPT FREQ TightOpt
|  4> ! CPCM(dmso)
|  5> %scf
|  6> MaxIter 800
|  7> end
|  8> %geom
|  9> MaxIter 800
| 10> MaxStep 0.2
| 11> end
| 12> *xyz 0 1
| 13> C        0.945939000     -1.047584000      0.667044000
| 14> C        1.399150000     -2.357577000      0.049791000
| 15> O        2.463440000     -2.877893000      0.256860000
| 16> O        0.460843000     -2.817056000     -0.756567000
| 17> C        0.768882000     -4.019403000     -1.473907000
| 18> H       -0.074552000     -1.136610000      1.053851000
| 19> H        1.653269000     -3.868093000     -2.092477000
| 20> H       -0.101029000     -4.220683000     -2.092652000
| 21> C        2.413173000      0.629539000      0.123427000
| 22> C        1.091214000      0.132863000     -0.322643000
| 23> C       -0.014159000      1.154955000     -0.231223000
| 24> C       -0.006399000      2.162839000      0.719249000
| 25> C       -1.047339000      3.077533000      0.805941000
| 26> C       -2.108745000      2.977886000     -0.077291000
| 27> C       -2.139096000      1.977722000     -1.039442000
| 28> C       -1.096541000      1.061272000     -1.117529000
| 29> O       -1.047600000      0.050775000     -2.009817000
| 30> C       -2.104190000     -0.072335000     -2.943614000
| 31> N        2.775619000      0.150271000      1.298124000
| 32> O        3.713523000      0.335792000      2.019454000
| 33> H        1.146238000     -0.243656000     -1.343897000
| 34> H        0.829459000      2.241083000      1.407276000
| 35> H       -1.024222000      3.858500000      1.556072000
| 36> H       -2.930908000      3.682487000     -0.023665000
| 37> H       -2.979669000      1.910538000     -1.716588000
| 38> H       -1.859780000     -0.934837000     -3.560017000
| 39> H       -2.179394000      0.819031000     -3.572745000
| 40> H       -3.057272000     -0.244148000     -2.436649000
| 41> O        1.802840000     -0.732253000      1.766359000
| 42> H        0.940204000     -4.837642000     -0.774964000
| 43> N        3.214100000      1.546808000     -0.582046000
| 44> O        4.283348000      1.902678000     -0.122075000
| 45> O        2.753883000      1.926954000     -1.648802000
| 46> *
| 47>
| 48>                          ****END OF INPUT****
 Total Charge           Charge          ....    0
 Multiplicity           Mult            ....    1
 Number of Electrons    NEL             ....  154
Dispersion correction           -0.036649195
FINAL SINGLE POINT ENERGY     -1099.630439723982
Dispersion correction            ... done
Dispersion correction           -0.036654571
FINAL SINGLE POINT ENERGY     -1099.630494935905
Dispersion correction            ... done
Dispersion correction           -0.036635630
FINAL SINGLE POINT ENERGY     -1099.630507007916
Dispersion correction            ... done
FINAL SINGLE POINT ENERGY     -1099.630524570687
FINAL SINGLE POINT ENERGY     -1099.630502571105
FINAL SINGLE POINT ENERGY     -1099.630541998063
FINAL SINGLE POINT ENERGY     -1099.630549572284
FINAL SINGLE POINT ENERGY     -1099.630543179926
FINAL SINGLE POINT ENERGY     -1099.630560118968
FINAL SINGLE POINT ENERGY     -1099.630556361511
FINAL SINGLE POINT ENERGY     -1099.630550220896
FINAL SINGLE POINT ENERGY     -1099.630546749835
Dispersion correction           -0.036668168
FINAL SINGLE POINT ENERGY     -1099.630544733854
Dispersion correction            ... done
Dispersion correction           -0.036667499
FINAL SINGLE POINT ENERGY     -1099.630543608227
Dispersion correction            ... done
                    ***********************HURRAY********************

CARTESIAN COORDINATES (ANGSTROEM)
---------------------------------
  C      0.953673   -1.045278    0.660466
  C      1.396131   -2.345987    0.012814
  O      2.502272   -2.806332    0.114029
  O      0.407789   -2.852196   -0.697178
  C      0.711417   -4.030109   -1.458400
  H     -0.057936   -1.128931    1.052465
  H      1.519371   -3.821180   -2.159216
  H     -0.202883   -4.277172   -1.990278
  C      2.421890    0.642289    0.144425
  C      1.105414    0.146758   -0.317211
  C     -0.006601    1.160757   -0.229184
  C     -0.006309    2.173935    0.715900
  C     -1.054716    3.080379    0.797468
  C     -2.116482    2.966338   -0.084247
  C     -2.138861    1.960916   -1.041978
  C     -1.086893    1.053810   -1.117052
  O     -1.025165    0.043223   -2.007850
  C     -2.076981   -0.089963   -2.946682
  N      2.786037    0.141482    1.308690
  O      3.723347    0.312699    2.032719
  H      1.173117   -0.220495   -1.341593
  H      0.829948    2.262784    1.402182
  H     -1.037093    3.866714    1.542008
  H     -2.942941    3.666260   -0.035842
  H     -2.975365    1.888562   -1.723826
  H     -1.819157   -0.947065   -3.565027
  H     -2.160436    0.802363   -3.573252
  H     -3.030812   -0.274230   -2.444905
  O      1.816238   -0.756082    1.760389
  H      0.998703   -4.841650   -0.790564
  N      3.223144    1.571041   -0.546709
  O      4.291901    1.918987   -0.080670
  O      2.762466    1.967128   -1.607055

 Multiplicity           Mult            ....    1
 Number of Electrons    NEL             ....  154
 Basis Dimension        Dim             ....  723

ORBITAL ENERGIES
----------------

  NO   OCC          E(Eh)            E(eV)
   0   2.0000     -19.313303      -525.5417
   1   2.0000     -19.275777      -524.5206
   2   2.0000     -19.270656      -524.3812
   3   2.0000     -19.253487      -523.9140
   4   2.0000     -19.252605      -523.8900
   5   2.0000     -19.249809      -523.8139
   6   2.0000     -19.216974      -522.9204
   7   2.0000     -14.647361      -398.5750
   8   2.0000     -14.640950      -398.4005
   9   2.0000     -10.371659      -282.2272
  10   2.0000     -10.341479      -281.4059
  11   2.0000     -10.327825      -281.0344
  12   2.0000     -10.296663      -280.1865
  13   2.0000     -10.287575      -279.9392
  14   2.0000     -10.275840      -279.6198
  15   2.0000     -10.268521      -279.4207
  16   2.0000     -10.248208      -278.8679
  17   2.0000     -10.236695      -278.5546
  18   2.0000     -10.233403      -278.4650
  19   2.0000     -10.229644      -278.3628
  20   2.0000     -10.225329      -278.2454
  21   2.0000      -1.297980       -35.3198
  22   2.0000      -1.281459       -34.8703
  23   2.0000      -1.168094       -31.7855
  24   2.0000      -1.141075       -31.0502
  25   2.0000      -1.112863       -30.2826
  26   2.0000      -1.108594       -30.1664
  27   2.0000      -1.074325       -29.2339
  28   2.0000      -0.958853       -26.0917
  29   2.0000      -0.899790       -24.4845
  30   2.0000      -0.861394       -23.4397
  31   2.0000      -0.809659       -22.0320
  32   2.0000      -0.797231       -21.6938
  33   2.0000      -0.783733       -21.3265
  34   2.0000      -0.761590       -20.7239
  35   2.0000      -0.729679       -19.8556
  36   2.0000      -0.715716       -19.4756
  37   2.0000      -0.652818       -17.7641
  38   2.0000      -0.640398       -17.4261
  39   2.0000      -0.622796       -16.9471
  40   2.0000      -0.610770       -16.6199
  41   2.0000      -0.603384       -16.4189
  42   2.0000      -0.591522       -16.0961
  43   2.0000      -0.577400       -15.7119
  44   2.0000      -0.567238       -15.4353
  45   2.0000      -0.557388       -15.1673
  46   2.0000      -0.554732       -15.0950
  47   2.0000      -0.542647       -14.7662
  48   2.0000      -0.529300       -14.4030
  49   2.0000      -0.526794       -14.3348
  50   2.0000      -0.513629       -13.9766
  51   2.0000      -0.508093       -13.8259
  52   2.0000      -0.491843       -13.3837
  53   2.0000      -0.485755       -13.2181
  54   2.0000      -0.473025       -12.8717
  55   2.0000      -0.464501       -12.6397
  56   2.0000      -0.455761       -12.4019
  57   2.0000      -0.446814       -12.1584
  58   2.0000      -0.438173       -11.9233
  59   2.0000      -0.430031       -11.7017
  60   2.0000      -0.416555       -11.3350
  61   2.0000      -0.397547       -10.8178
  62   2.0000      -0.391614       -10.6564
  63   2.0000      -0.389826       -10.6077
  64   2.0000      -0.376831       -10.2541
  65   2.0000      -0.371737       -10.1155
  66   2.0000      -0.362986        -9.8773
  67   2.0000      -0.350552        -9.5390
  68   2.0000      -0.347971        -9.4688
  69   2.0000      -0.346325        -9.4240
  70   2.0000      -0.344438        -9.3726
  71   2.0000      -0.340281        -9.2595
  72   2.0000      -0.329066        -8.9543
  73   2.0000      -0.321887        -8.7590
  74   2.0000      -0.289167        -7.8686
  75   2.0000      -0.275927        -7.5083
  76   2.0000      -0.244967        -6.6659
  77   0.0000      -0.111817        -3.0427
  78   0.0000      -0.027177        -0.7395
  79   0.0000      -0.010567        -0.2875
  80   0.0000      -0.006345        -0.1727
  81   0.0000       0.001618         0.0440

MULLIKEN ATOMIC CHARGES
-----------------------
   0 C :    0.106948
   1 C :    0.272047
   2 O :   -0.375075
   3 O :   -0.214384
   4 C :   -0.256620
   5 H :    0.185007
   6 H :    0.160492
   7 H :    0.167466
   8 C :   -0.111266
   9 C :    0.064372
  10 C :   -0.033667
  11 C :   -0.148624
  12 C :   -0.208336
  13 C :   -0.141024
  14 C :   -0.288674
  15 C :    0.222554
  16 O :   -0.260360
  17 C :   -0.280695
  18 N :    0.438933
  19 O :   -0.330148
  20 H :    0.158112
  21 H :    0.169918
  22 H :    0.150053
  23 H :    0.154903
  24 H :    0.167798
  25 H :    0.163852
  26 H :    0.153054
  27 H :    0.152895
  28 O :   -0.183444
  29 H :    0.160919
  30 N :    0.499769
  31 O :   -0.355451
  32 O :   -0.361322
Sum of atomic charges:    0.0000000

LOEWDIN ATOMIC CHARGES
----------------------
   0 C :   -0.208843
   1 C :   -0.489479
   2 O :    0.100442
   3 O :    0.278954
   4 C :   -0.289595
   5 H :    0.182152
   6 H :    0.122279
   7 H :    0.124648
   8 C :   -0.217414
   9 C :   -0.155148
  10 C :   -0.111207
  11 C :   -0.106636
  12 C :   -0.160306
  13 C :   -0.139152
  14 C :   -0.135095
  15 C :   -0.228912
  16 O :    0.249453
  17 C :   -0.321840
  18 N :    0.081473
  19 O :    0.003090
  20 H :    0.194267
  21 H :    0.164180
  22 H :    0.153651
  23 H :    0.156086
  24 H :    0.161594
  25 H :    0.122455
  26 H :    0.118488
  27 H :    0.118217
  28 O :    0.227444
  29 H :    0.122330
  30 N :   -0.047612
  31 O :   -0.035650
  32 O :   -0.034314

  Mayer bond orders larger than 0.100000
B(  0-C ,  1-C ) :   0.9634 B(  0-C ,  5-H ) :   0.9176 B(  0-C ,  9-C ) :   0.9227
B(  0-C , 28-O ) :   0.9491 B(  1-C ,  2-O ) :   2.0004 B(  1-C ,  3-O ) :   1.2604
B(  3-O ,  4-C ) :   0.8774 B(  4-C ,  6-H ) :   0.9650 B(  4-C ,  7-H ) :   0.9616
B(  4-C , 29-H ) :   0.9652 B(  8-C ,  9-C ) :   1.0590 B(  8-C , 18-N ) :   1.4865
B(  8-C , 19-O ) :   0.2147 B(  8-C , 30-N ) :   1.0667 B(  9-C , 10-C ) :   0.8833
B(  9-C , 20-H ) :   0.9320 B( 10-C , 11-C ) :   1.3451 B( 10-C , 15-C ) :   1.3143
B( 11-C , 12-C ) :   1.4037 B( 11-C , 21-H ) :   0.9738 B( 12-C , 13-C ) :   1.4101
B( 12-C , 22-H ) :   0.9788 B( 13-C , 14-C ) :   1.3929 B( 13-C , 23-H ) :   0.9630
B( 14-C , 15-C ) :   1.3814 B( 14-C , 24-H ) :   0.9577 B( 15-C , 16-O ) :   1.1317
B( 16-O , 17-C ) :   0.9347 B( 17-C , 25-H ) :   0.9640 B( 17-C , 26-H ) :   0.9619
B( 17-C , 27-H ) :   0.9618 B( 18-N , 19-O ) :   1.6001 B( 18-N , 28-O ) :   0.9245
B( 30-N , 31-O ) :   1.5523 B( 30-N , 32-O ) :   1.5409 B( 31-O , 32-O ) :   0.1840

Dispersion correction           -0.036666938
FINAL SINGLE POINT ENERGY     -1099.630542716419

DIPOLE MOMENT
-------------
                                X             Y             Z
Electronic contribution:     15.60701       3.44767       8.84944
Nuclear contribution   :    -19.73177      -4.94550     -10.12973
                        -----------------------------------------
Total Dipole Moment    :     -4.12476      -1.49782      -1.28028
                        -----------------------------------------
Magnitude (a.u.)       :      4.57124
Magnitude (Debye)      :     11.61916

Dispersion correction in the Hessian             ... done   (      0.5 sec)

VIBRATIONAL FREQUENCIES
-----------------------

Scaling factor for frequencies =  1.000000000  (already applied!)

   0:         0.00 cm**-1
   1:         0.00 cm**-1
   2:         0.00 cm**-1
   3:         0.00 cm**-1
   4:         0.00 cm**-1
   5:         0.00 cm**-1
   6:        11.00 cm**-1
   7:        31.31 cm**-1
   8:        44.55 cm**-1
   9:        56.92 cm**-1
  10:        67.87 cm**-1
  11:        73.66 cm**-1
  12:        96.83 cm**-1
  13:       104.88 cm**-1
  14:       131.01 cm**-1
  15:       143.21 cm**-1
  16:       151.16 cm**-1
  17:       174.39 cm**-1
  18:       204.10 cm**-1
  19:       234.57 cm**-1
  20:       248.74 cm**-1
  21:       259.46 cm**-1
  22:       297.35 cm**-1
  23:       309.12 cm**-1
  24:       341.75 cm**-1
  25:       349.39 cm**-1
  26:       384.24 cm**-1
  27:       418.48 cm**-1
  28:       466.60 cm**-1
  29:       484.90 cm**-1
  30:       500.77 cm**-1
  31:       564.33 cm**-1
  32:       580.92 cm**-1
  33:       606.51 cm**-1
  34:       623.15 cm**-1
  35:       704.31 cm**-1
  36:       716.90 cm**-1
  37:       738.06 cm**-1
  38:       766.49 cm**-1
  39:       771.62 cm**-1
  40:       778.95 cm**-1
  41:       788.04 cm**-1
  42:       800.34 cm**-1
  43:       820.37 cm**-1
  44:       858.83 cm**-1
  45:       876.09 cm**-1
  46:       905.77 cm**-1
  47:       956.78 cm**-1
  48:       963.56 cm**-1
  49:       967.57 cm**-1
  50:       995.01 cm**-1
  51:      1009.22 cm**-1
  52:      1047.58 cm**-1
  53:      1071.05 cm**-1
  54:      1087.98 cm**-1
  55:      1093.49 cm**-1
  56:      1143.06 cm**-1
  57:      1171.17 cm**-1
  58:      1172.28 cm**-1
  59:      1179.17 cm**-1
  60:      1196.08 cm**-1
  61:      1205.47 cm**-1
  62:      1211.01 cm**-1
  63:      1221.14 cm**-1
  64:      1244.12 cm**-1
  65:      1280.77 cm**-1
  66:      1300.47 cm**-1
  67:      1310.58 cm**-1
  68:      1333.28 cm**-1
  69:      1356.69 cm**-1
  70:      1376.77 cm**-1
  71:      1389.33 cm**-1
  72:      1402.56 cm**-1
  73:      1407.97 cm**-1
  74:      1466.62 cm**-1
  75:      1466.86 cm**-1
  76:      1470.96 cm**-1
  77:      1472.67 cm**-1
  78:      1474.08 cm**-1
  79:      1483.21 cm**-1
  80:      1500.09 cm**-1
  81:      1541.70 cm**-1
  82:      1588.53 cm**-1
  83:      1650.47 cm**-1
  84:      1666.27 cm**-1
  85:      1720.94 cm**-1
  86:      1809.88 cm**-1
  87:      3039.25 cm**-1
  88:      3077.57 cm**-1
  89:      3111.74 cm**-1
  90:      3123.82 cm**-1
  91:      3158.35 cm**-1
  92:      3164.34 cm**-1
  93:      3168.31 cm**-1
  94:      3186.52 cm**-1
  95:      3197.59 cm**-1
  96:      3198.06 cm**-1
  97:      3217.03 cm**-1
  98:      3232.54 cm**-1

IR SPECTRUM
-----------

 Mode   freq       eps      Int      T**2         TX        TY        TZ
       cm**-1   L/(mol*cm) km/mol    a.u.
----------------------------------------------------------------------------
  6:     11.00   0.000090    0.46  0.002558  (-0.013796 -0.018673 -0.044937)
  7:     31.31   0.000197    0.99  0.001960  ( 0.024299  0.024204 -0.028004)
  8:     44.55   0.000348    1.76  0.002440  ( 0.016337  0.033810 -0.032097)
  9:     56.92   0.000330    1.67  0.001810  ( 0.035360 -0.011461 -0.020688)
 10:     67.87   0.000133    0.67  0.000610  (-0.012808 -0.021083  0.001067)
 11:     73.66   0.000296    1.49  0.001252  ( 0.011538 -0.028416 -0.017654)
 12:     96.83   0.001100    5.56  0.003546  (-0.027054 -0.037081  0.037940)
 13:    104.88   0.000175    0.88  0.000520  ( 0.011867  0.000736 -0.019452)
 14:    131.01   0.000195    0.99  0.000465  ( 0.011617 -0.003988 -0.017735)
 15:    143.21   0.000083    0.42  0.000181  ( 0.000201  0.012901 -0.003824)
 16:    151.16   0.000380    1.92  0.000784  ( 0.020648 -0.018330 -0.004704)
 17:    174.39   0.000933    4.71  0.001670  ( 0.014343  0.002373 -0.038187)
 18:    204.10   0.000444    2.24  0.000679  ( 0.001490  0.015850 -0.020629)
 19:    234.57   0.001675    8.47  0.002229  ( 0.030945  0.026914  0.023386)
 20:    248.74   0.000945    4.77  0.001185  ( 0.008434 -0.002705  0.033269)
 21:    259.46   0.002266   11.45  0.002726  ( 0.029102  0.036470 -0.023431)
 22:    297.35   0.000228    1.15  0.000239  ( 0.005001  0.011395 -0.009183)
 23:    309.12   0.001130    5.71  0.001140  ( 0.015089  0.029754  0.005243)
 24:    341.75   0.004008   20.25  0.003660  ( 0.038981  0.038196  0.026097)
 25:    349.39   0.001056    5.34  0.000944  (-0.020197  0.020245  0.011217)
 26:    384.24   0.001492    7.54  0.001211  ( 0.006269 -0.031927 -0.012360)
 27:    418.48   0.000224    1.13  0.000167  (-0.010783  0.006437  0.003037)
 28:    466.60   0.000079    0.40  0.000053  ( 0.004410 -0.001781 -0.005471)
 29:    484.90   0.001575    7.96  0.001014  ( 0.003845  0.021542 -0.023124)
 30:    500.77   0.003386   17.11  0.002110  ( 0.039702 -0.003890 -0.022778)
 31:    564.33   0.000312    1.58  0.000173  ( 0.009186  0.009039  0.002564)
 32:    580.92   0.002745   13.87  0.001475  ( 0.026496 -0.016184 -0.022598)
 33:    606.51   0.004388   22.17  0.002258  ( 0.046010  0.011853 -0.000495)
 34:    623.15   0.003572   18.05  0.001789  (-0.020128 -0.032568  0.017967)
 35:    704.31   0.000269    1.36  0.000119  ( 0.007944 -0.007146 -0.002231)
 36:    716.90   0.003023   15.27  0.001316  ( 0.005354  0.031831  0.016546)
 37:    738.06   0.001518    7.67  0.000642  (-0.017779  0.017236 -0.005366)
 38:    766.49   0.002663   13.46  0.001084  (-0.016605  0.000261  0.028432)
 39:    771.62   0.024838  125.52  0.010045  ( 0.035668  0.066845 -0.065608)
 40:    778.95   0.004240   21.43  0.001699  (-0.039942  0.005107 -0.008784)
 41:    788.04   0.008785   44.40  0.003479  ( 0.048746 -0.012065 -0.030939)
 42:    800.34   0.034450  174.10  0.013433  (-0.053440 -0.102153  0.011896)
 43:    820.37   0.006568   33.19  0.002498  ( 0.040694  0.009260 -0.027507)
 44:    858.83   0.016098   81.35  0.005849  (-0.032918 -0.053382  0.043775)
 45:    876.09   0.000738    3.73  0.000263  ( 0.008619  0.010577 -0.008751)
 46:    905.77   0.006156   31.11  0.002121  ( 0.006714 -0.034042  0.030281)
 47:    956.78   0.004551   23.00  0.001484  (-0.004955 -0.038154  0.002009)
 48:    963.56   0.039806  201.16  0.012892  ( 0.080691  0.079346 -0.009213)
 49:    967.57   0.001565    7.91  0.000505  (-0.016368  0.013820 -0.006778)
 50:    995.01   0.000107    0.54  0.000034  ( 0.003444  0.004344  0.001667)
 51:   1009.22   0.009526   48.14  0.002946  ( 0.011311  0.052942  0.003848)
 52:   1047.58   0.003358   16.97  0.001000  ( 0.005049 -0.029692 -0.009653)
 53:   1071.05   0.015087   76.24  0.004396  ( 0.047755  0.009443  0.045012)
 54:   1087.98   0.009901   50.04  0.002840  ( 0.007566  0.031737  0.042136)
 55:   1093.49   0.009494   47.98  0.002709  (-0.020662 -0.019240 -0.043729)
 56:   1143.06   0.016861   85.21  0.004603  ( 0.033734  0.015102  0.056896)
 57:   1171.17   0.000120    0.61  0.000032  (-0.000964 -0.002603  0.004925)
 58:   1172.28   0.000114    0.58  0.000030  ( 0.001892  0.004490 -0.002596)
 59:   1179.17   0.000799    4.04  0.000211  ( 0.013495  0.002357  0.004881)
 60:   1196.08   0.004735   23.93  0.001235  (-0.003840  0.022115 -0.027048)
 61:   1205.47   0.003616   18.28  0.000936  ( 0.010455  0.024494  0.015065)
 62:   1211.01   0.007283   36.81  0.001877  (-0.011517 -0.035654  0.021747)
 63:   1221.14   0.005598   28.29  0.001431  ( 0.011887 -0.021679  0.028623)
 64:   1244.12   0.041515  209.80  0.010413  (-0.058754 -0.073553 -0.039384)
 65:   1280.77   0.029967  151.44  0.007302  ( 0.015756  0.077998  0.031138)
 66:   1300.47   0.090971  459.73  0.021830  ( 0.068796  0.096450  0.088284)
 67:   1310.58   0.013566   68.56  0.003230  ( 0.020979 -0.012411 -0.051343)
 68:   1333.28   0.007721   39.02  0.001807  (-0.005261 -0.040496 -0.011818)
 69:   1356.69   0.046022  232.58  0.010586  (-0.014037 -0.077617  0.066064)
 70:   1376.77   0.119589  604.35  0.027106  ( 0.029157  0.083653 -0.138775)
 71:   1389.33   0.012816   64.77  0.002879  (-0.009728 -0.052477 -0.005495)
 72:   1402.56   0.047108  238.06  0.010481  (-0.048633 -0.020374 -0.087756)
 73:   1407.97   0.066651  336.83  0.014773  ( 0.047315  0.073202 -0.084707)
 74:   1466.62   0.003724   18.82  0.000792  (-0.006029 -0.013994  0.023670)
 75:   1466.86   0.004504   22.76  0.000958  ( 0.000948 -0.028116 -0.012914)
 76:   1470.96   0.010654   53.84  0.002260  (-0.017361 -0.034575 -0.027629)
 77:   1472.67   0.003684   18.62  0.000781  (-0.019565  0.018515  0.007422)
 78:   1474.08   0.002959   14.95  0.000626  ( 0.012206  0.014670 -0.016195)
 79:   1483.21   0.005330   26.93  0.001121  ( 0.000629  0.023760  0.023590)
 80:   1500.09   0.012616   63.76  0.002624  (-0.009542 -0.035004 -0.036168)
 81:   1541.70   0.038457  194.35  0.007784  ( 0.010870  0.061255  0.062561)
 82:   1588.53   0.071799  362.84  0.014105  ( 0.097156  0.012891  0.067077)
 83:   1650.47   0.008854   44.75  0.001674  (-0.029571 -0.004272 -0.027954)
 84:   1666.27   0.018605   94.02  0.003484  ( 0.005077  0.038080  0.044816)
 85:   1720.94   0.228522  1154.86  0.041439  ( 0.122775 -0.043327  0.156486)
 86:   1809.88   0.103140  521.23  0.017784  ( 0.124135 -0.030718  0.037820)
 87:   3039.25   0.011916   60.22  0.001223  (-0.024725 -0.005544 -0.024112)
 88:   3077.57   0.004665   23.58  0.000473  (-0.001805  0.018387  0.011475)
 89:   3111.74   0.006956   35.15  0.000698  ( 0.013219  0.015749 -0.016579)
 90:   3123.82   0.001495    7.55  0.000149  ( 0.008157 -0.002696  0.008690)
 91:   3158.35   0.000365    1.84  0.000036  (-0.000594  0.002389  0.005475)
 92:   3164.34   0.002872   14.52  0.000283  (-0.004778 -0.009868  0.012770)
 93:   3168.31   0.003582   18.10  0.000353  ( 0.005173 -0.014847 -0.010279)
 94:   3186.52   0.000821    4.15  0.000080  ( 0.007653 -0.001255  0.004504)
 95:   3197.59   0.001566    7.91  0.000153  ( 0.011055  0.001827  0.005219)
 96:   3198.06   0.001346    6.80  0.000131  (-0.009808  0.005676 -0.001705)
 97:   3217.03   0.002353   11.89  0.000228  (-0.002415  0.011816  0.009099)
 98:   3232.54   0.000252    1.27  0.000024  ( 0.003789  0.000170  0.003153)

--------------------------
THERMOCHEMISTRY AT 298.15K
--------------------------

Temperature         ... 298.15 K
Pressure            ... 1.00 atm
Total Mass          ... 296.24 AMU

Throughout the following assumptions are being made:
  (1) The electronic state is orbitally nondegenerate
  (2) There are no thermally accessible electronically excited states
  (3) Hindered rotations indicated by low frequency modes are not
      treated as such but are treated as vibrations and this may
      cause some error
  (4) All equations used are the standard statistical mechanics
      equations for an ideal gas
  (5) All vibrations are strictly harmonic

freq.      11.00  E(vib)   ...       0.58
freq.      31.31  E(vib)   ...       0.55
freq.      44.55  E(vib)   ...       0.53
freq.      56.92  E(vib)   ...       0.51
freq.      67.87  E(vib)   ...       0.50
freq.      73.66  E(vib)   ...       0.49
freq.      96.83  E(vib)   ...       0.46
freq.     104.88  E(vib)   ...       0.46
freq.     131.01  E(vib)   ...       0.42
freq.     143.21  E(vib)   ...       0.41
freq.     151.16  E(vib)   ...       0.40
freq.     174.39  E(vib)   ...       0.38
freq.     204.10  E(vib)   ...       0.35
freq.     234.57  E(vib)   ...       0.32
freq.     248.74  E(vib)   ...       0.31
freq.     259.46  E(vib)   ...       0.30
freq.     297.35  E(vib)   ...       0.27
freq.     309.12  E(vib)   ...       0.26
freq.     341.75  E(vib)   ...       0.23
freq.     349.39  E(vib)   ...       0.23
freq.     384.24  E(vib)   ...       0.20
freq.     418.48  E(vib)   ...       0.18
freq.     466.60  E(vib)   ...       0.16
freq.     484.90  E(vib)   ...       0.15
freq.     500.77  E(vib)   ...       0.14
freq.     564.33  E(vib)   ...       0.11
freq.     580.92  E(vib)   ...       0.11
freq.     606.51  E(vib)   ...       0.10
freq.     623.15  E(vib)   ...       0.09
freq.     704.31  E(vib)   ...       0.07
freq.     716.90  E(vib)   ...       0.07
freq.     738.06  E(vib)   ...       0.06
freq.     766.49  E(vib)   ...       0.06
freq.     771.62  E(vib)   ...       0.05
freq.     778.95  E(vib)   ...       0.05
freq.     788.04  E(vib)   ...       0.05
freq.     800.34  E(vib)   ...       0.05
freq.     820.37  E(vib)   ...       0.05
freq.     858.83  E(vib)   ...       0.04
freq.     876.09  E(vib)   ...       0.04
freq.     905.77  E(vib)   ...       0.03
freq.     956.78  E(vib)   ...       0.03
freq.     963.56  E(vib)   ...       0.03
freq.     967.57  E(vib)   ...       0.03
freq.     995.01  E(vib)   ...       0.02
freq.    1009.22  E(vib)   ...       0.02
freq.    1047.58  E(vib)   ...       0.02
freq.    1071.05  E(vib)   ...       0.02
freq.    1087.98  E(vib)   ...       0.02
freq.    1093.49  E(vib)   ...       0.02
freq.    1143.06  E(vib)   ...       0.01
freq.    1171.17  E(vib)   ...       0.01
freq.    1172.28  E(vib)   ...       0.01
freq.    1179.17  E(vib)   ...       0.01
freq.    1196.08  E(vib)   ...       0.01
freq.    1205.47  E(vib)   ...       0.01
freq.    1211.01  E(vib)   ...       0.01
freq.    1221.14  E(vib)   ...       0.01
freq.    1244.12  E(vib)   ...       0.01
freq.    1280.77  E(vib)   ...       0.01
freq.    1300.47  E(vib)   ...       0.01
freq.    1310.58  E(vib)   ...       0.01
freq.    1333.28  E(vib)   ...       0.01
freq.    1356.69  E(vib)   ...       0.01
freq.    1376.77  E(vib)   ...       0.01
freq.    1389.33  E(vib)   ...       0.00
freq.    1402.56  E(vib)   ...       0.00
freq.    1407.97  E(vib)   ...       0.00
freq.    1466.62  E(vib)   ...       0.00
freq.    1466.86  E(vib)   ...       0.00
freq.    1470.96  E(vib)   ...       0.00
freq.    1472.67  E(vib)   ...       0.00
freq.    1474.08  E(vib)   ...       0.00
freq.    1483.21  E(vib)   ...       0.00
freq.    1500.09  E(vib)   ...       0.00
freq.    1541.70  E(vib)   ...       0.00
freq.    1588.53  E(vib)   ...       0.00
freq.    1650.47  E(vib)   ...       0.00
freq.    1666.27  E(vib)   ...       0.00
freq.    1720.94  E(vib)   ...       0.00
freq.    1809.88  E(vib)   ...       0.00
freq.    3039.25  E(vib)   ...       0.00
freq.    3077.57  E(vib)   ...       0.00
freq.    3111.74  E(vib)   ...       0.00
freq.    3123.82  E(vib)   ...       0.00
freq.    3158.35  E(vib)   ...       0.00
freq.    3164.34  E(vib)   ...       0.00
freq.    3168.31  E(vib)   ...       0.00
freq.    3186.52  E(vib)   ...       0.00
freq.    3197.59  E(vib)   ...       0.00
freq.    3198.06  E(vib)   ...       0.00
freq.    3217.03  E(vib)   ...       0.00
freq.    3232.54  E(vib)   ...       0.00

------------
INNER ENERGY
------------

The inner energy is: U= E(el) + E(ZPE) + E(vib) + E(rot) + E(trans)
    E(el)   - is the total energy from the electronic structure calculation
              = E(kin-el) + E(nuc-el) + E(el-el) + E(nuc-nuc)
    E(ZPE)  - the the zero temperature vibrational energy from the frequency calculation
    E(vib)  - the the finite temperature correction to E(ZPE) due to population
              of excited vibrational states
    E(rot)  - is the rotational thermal energy
    E(trans)- is the translational thermal energy

Summary of contributions to the inner energy U:
Electronic energy                ...  -1099.63054272 Eh
Zero point energy                ...      0.24551463 Eh     154.06 kcal/mol
Thermal vibrational correction   ...      0.01624514 Eh      10.19 kcal/mol
Thermal rotational correction    ...      0.00141627 Eh       0.89 kcal/mol
Thermal translational correction ...      0.00141627 Eh       0.89 kcal/mol
-----------------------------------------------------------------------
Total thermal energy                  -1099.36595040 Eh

Summary of corrections to the electronic energy:
(perhaps to be used in another calculation)
Total thermal correction                  0.01907769 Eh      11.97 kcal/mol
Non-thermal (ZPE) correction              0.24551463 Eh     154.06 kcal/mol
-----------------------------------------------------------------------
Total correction                          0.26459232 Eh     166.03 kcal/mol

--------
ENTHALPY
--------

The enthalpy is H = U + kB*T
                kB is Boltzmann's constant
Total free energy                 ...  -1099.36595040 Eh
Thermal Enthalpy correction       ...      0.00094421 Eh       0.59 kcal/mol
-----------------------------------------------------------------------
Total Enthalpy                    ...  -1099.36500619 Eh

Note: Only C1 symmetry has been detected, increase convergence thresholds
      if your molecule has a higher symmetry. Symmetry factor of 1.0 is
      used for the rotational entropy correction.

Note: Rotational entropy computed according to Herzberg
Infrared and Raman Spectra, Chapter V,1, Van Nostrand Reinhold, 1945

Rotational constants in cm-1:     0.012084     0.010043     0.006873

                             ****ORCA TERMINATED NORMALLY****
TOTAL RUN TIME: 0 days 0 hours 45 minutes 43 seconds 742 msec
