                         Program Version 5.0.4 -  RELEASE  -
|  1> %pal nprocs 24 end
|  2> %maxcore 3500
|  3> ! PBE0 D3BJ def2-TZVP TightSCF OPT FREQ TightOpt
|  4> ! CPCM(dmso)
|  5> %scf
|  6> MaxIter 800
|  7> end
|  8> %geom
|  9> MaxIter 800
| 10> MaxStep 0.2
| 11> end
| 12> *xyz 0 1
| 13> C        0.930832801     -1.190766429      0.178340365
| 14> C        1.429221075     -2.171966506     -0.867148330
| 15> O        0.791063395     -2.405310319     -1.865379548
| 16> O        2.592690334     -2.720771185     -0.571060983
| 17> C        3.106725364     -3.657483622     -1.525846529
| 18> H       -0.083279925     -1.491507498      0.462340116
| 19> H        4.056448640     -3.996527996     -1.120796995
| 20> H        3.253655489     -3.170131151     -2.489857884
| 21> C        2.267005198      0.708760103      0.205908509
| 22> C        0.964592629      0.253363635     -0.367441331
| 23> C       -0.191561605      1.116727711      0.070449062
| 24> C       -0.202747648      1.744057103      1.306482806
| 25> C       -1.276932333      2.526972683      1.709177122
| 26> C       -2.355113089      2.684223914      0.854806476
| 27> C       -2.369401421      2.066167348     -0.388744958
| 28> C       -1.293582740      1.277686984     -0.781967034
| 29> O       -1.230683934      0.628999171     -1.964835652
| 30> C       -2.297941332      0.799104668     -2.878101059
| 31> N        2.690469073     -0.130036648      1.109027072
| 32> O        3.695964327     -0.149330054      1.846362111
| 33> H        0.991403727      0.225241800     -1.456310028
| 34> H        0.647546161      1.618700002      1.969018502
| 35> H       -1.266816995      3.007780361      2.679883220
| 36> H       -3.202860935      3.291468282      1.151728881
| 37> H       -3.223544915      2.194008464     -1.039879127
| 38> H       -2.043446079      0.201866208     -3.751279655
| 39> H       -2.404040317      1.848251311     -3.169011731
| 40> H       -3.239535177      0.441297539     -2.453201431
| 41> O        1.729127630     -1.165077150      1.343149025
| 42> H        2.417591943     -4.494505006     -1.638664180
| 43> N        2.941672730      1.840051838     -0.129854634
| 44> C        2.505276170      2.562763381     -1.307050295
| 45> H        3.314064167      3.224999019     -1.618560993
| 46> H        2.296445761      1.875095765     -2.125066247
| 47> H        1.613745830      3.172782447     -1.113875912
| 48> C        3.487208680      2.682540938      0.921347253
| 49> H        4.302998852      3.277181166      0.508044269
| 50> H        2.721187511      3.362470477      1.315456914
| 51> H        3.869738347      2.065757509      1.731972280
| 52> *
| 53>
| 54>                          ****END OF INPUT****
 Total Charge           Charge          ....    0
 Multiplicity           Mult            ....    1
 Number of Electrons    NEL             ....  156
Dispersion correction           -0.043151355
FINAL SINGLE POINT ENERGY     -1029.120623895306
Dispersion correction            ... done
Dispersion correction           -0.043164843
FINAL SINGLE POINT ENERGY     -1029.120676121864
Dispersion correction            ... done
Dispersion correction           -0.043157762
FINAL SINGLE POINT ENERGY     -1029.120681026263
Dispersion correction            ... done
FINAL SINGLE POINT ENERGY     -1029.120696252694
FINAL SINGLE POINT ENERGY     -1029.120703137747
FINAL SINGLE POINT ENERGY     -1029.120709846446
Dispersion correction           -0.043172026
FINAL SINGLE POINT ENERGY     -1029.120712946770
Dispersion correction            ... done
Dispersion correction           -0.043173720
FINAL SINGLE POINT ENERGY     -1029.120713105734
Dispersion correction            ... done
                    ***********************HURRAY********************

CARTESIAN COORDINATES (ANGSTROEM)
---------------------------------
  C      0.906232   -1.179640    0.149545
  C      1.418629   -2.154744   -0.899761
  O      0.791539   -2.384317   -1.904288
  O      2.583853   -2.692037   -0.595508
  C      3.119430   -3.614532   -1.552862
  H     -0.109572   -1.478612    0.409498
  H      4.070150   -3.942754   -1.142042
  H      3.266722   -3.117350   -2.511415
  C      2.262105    0.702975    0.218924
  C      0.961869    0.271130   -0.377118
  C     -0.192159    1.138510    0.057611
  C     -0.189755    1.800049    1.275752
  C     -1.261948    2.589680    1.670602
  C     -2.352917    2.717764    0.827469
  C     -2.382583    2.062821   -0.397474
  C     -1.307406    1.268857   -0.783609
  O     -1.254791    0.588980   -1.948558
  C     -2.346436    0.705147   -2.841869
  N      2.660988   -0.150743    1.119389
  O      3.655894   -0.196978    1.867772
  H      1.002552    0.256008   -1.466009
  H      0.669838    1.698358    1.930078
  H     -1.239832    3.099315    2.626169
  H     -3.197211    3.333191    1.117171
  H     -3.243787    2.173130   -1.042622
  H     -2.094877    0.090737   -3.703735
  H     -2.487226    1.742060   -3.159916
  H     -3.269238    0.335590   -2.385909
  O      1.678531   -1.175104    1.329065
  H      2.442939   -4.459954   -1.676774
  N      2.956460    1.826247   -0.099551
  C      2.541159    2.570687   -1.270838
  H      3.365338    3.218766   -1.571130
  H      2.321840    1.896749   -2.097316
  H      1.662216    3.197304   -1.074112
  C      3.520130    2.644435    0.961108
  H      4.350783    3.223008    0.555043
  H      2.770063    3.338971    1.360165
  H      3.885666    2.011202    1.766612

 Multiplicity           Mult            ....    1
 Number of Electrons    NEL             ....  156
 Basis Dimension        Dim             ....  759

ORBITAL ENERGIES
----------------

  NO   OCC          E(Eh)            E(eV)
   0   2.0000     -19.271754      -524.4111
   1   2.0000     -19.270025      -524.3640
   2   2.0000     -19.247587      -523.7535
   3   2.0000     -19.207313      -522.6576
   4   2.0000     -19.197341      -522.3862
   5   2.0000     -14.552342      -395.9894
   6   2.0000     -14.421901      -392.4399
   7   2.0000     -10.362646      -281.9819
   8   2.0000     -10.311625      -280.5936
   9   2.0000     -10.308966      -280.5212
  10   2.0000     -10.293504      -280.1005
  11   2.0000     -10.272751      -279.5358
  12   2.0000     -10.267718      -279.3988
  13   2.0000     -10.267381      -279.3896
  14   2.0000     -10.247186      -278.8401
  15   2.0000     -10.243062      -278.7279
  16   2.0000     -10.242370      -278.7091
  17   2.0000     -10.232798      -278.4486
  18   2.0000     -10.231205      -278.4052
  19   2.0000     -10.227555      -278.3059
  20   2.0000     -10.223076      -278.1840
  21   2.0000      -1.205759       -32.8104
  22   2.0000      -1.158796       -31.5324
  23   2.0000      -1.110349       -30.2141
  24   2.0000      -1.079982       -29.3878
  25   2.0000      -1.065681       -28.9987
  26   2.0000      -1.000803       -27.2332
  27   2.0000      -0.899152       -24.4672
  28   2.0000      -0.878644       -23.9091
  29   2.0000      -0.837129       -22.7794
  30   2.0000      -0.790799       -21.5187
  31   2.0000      -0.780289       -21.2328
  32   2.0000      -0.757162       -20.6034
  33   2.0000      -0.745074       -20.2745
  34   2.0000      -0.721666       -19.6375
  35   2.0000      -0.707615       -19.2552
  36   2.0000      -0.690469       -18.7886
  37   2.0000      -0.631489       -17.1837
  38   2.0000      -0.624969       -17.0063
  39   2.0000      -0.612548       -16.6683
  40   2.0000      -0.591364       -16.0918
  41   2.0000      -0.567992       -15.4558
  42   2.0000      -0.558493       -15.1974
  43   2.0000      -0.544419       -14.8144
  44   2.0000      -0.535138       -14.5619
  45   2.0000      -0.518831       -14.1181
  46   2.0000      -0.511155       -13.9092
  47   2.0000      -0.508712       -13.8428
  48   2.0000      -0.502338       -13.6693
  49   2.0000      -0.494600       -13.4588
  50   2.0000      -0.487300       -13.2601
  51   2.0000      -0.486642       -13.2422
  52   2.0000      -0.479596       -13.0505
  53   2.0000      -0.465083       -12.6555
  54   2.0000      -0.457829       -12.4582
  55   2.0000      -0.451753       -12.2928
  56   2.0000      -0.441740       -12.0204
  57   2.0000      -0.432581       -11.7711
  58   2.0000      -0.431187       -11.7332
  59   2.0000      -0.421017       -11.4565
  60   2.0000      -0.410905       -11.1813
  61   2.0000      -0.405040       -11.0217
  62   2.0000      -0.401860       -10.9352
  63   2.0000      -0.393850       -10.7172
  64   2.0000      -0.386625       -10.5206
  65   2.0000      -0.384765       -10.4700
  66   2.0000      -0.379920       -10.3382
  67   2.0000      -0.369121       -10.0443
  68   2.0000      -0.353475        -9.6186
  69   2.0000      -0.346556        -9.4303
  70   2.0000      -0.344495        -9.3742
  71   2.0000      -0.335029        -9.1166
  72   2.0000      -0.307060        -8.3555
  73   2.0000      -0.299763        -8.1570
  74   2.0000      -0.294672        -8.0184
  75   2.0000      -0.272981        -7.4282
  76   2.0000      -0.242448        -6.5973
  77   2.0000      -0.209063        -5.6889
  78   0.0000      -0.021087        -0.5738
  79   0.0000      -0.003975        -0.1082
  80   0.0000      -0.002683        -0.0730
  81   0.0000       0.008675         0.2361
  82   0.0000       0.043741         1.1903

MULLIKEN ATOMIC CHARGES
-----------------------
   0 C :    0.144762
   1 C :    0.252533
   2 O :   -0.395577
   3 O :   -0.213715
   4 C :   -0.260816
   5 H :    0.169819
   6 H :    0.164791
   7 H :    0.156781
   8 C :   -0.108522
   9 C :    0.025257
  10 C :   -0.050616
  11 C :   -0.136089
  12 C :   -0.231563
  13 C :   -0.136757
  14 C :   -0.301806
  15 C :    0.236758
  16 O :   -0.262117
  17 C :   -0.278233
  18 N :    0.391163
  19 O :   -0.544484
  20 H :    0.150077
  21 H :    0.174008
  22 H :    0.147419
  23 H :    0.153844
  24 H :    0.165877
  25 H :    0.162291
  26 H :    0.150963
  27 H :    0.151244
  28 O :   -0.246960
  29 H :    0.156828
  30 N :   -0.053228
  31 C :   -0.332015
  32 H :    0.164244
  33 H :    0.165327
  34 H :    0.142591
  35 C :   -0.323619
  36 H :    0.155394
  37 H :    0.131468
  38 H :    0.162677
Sum of atomic charges:   -0.0000000

LOEWDIN ATOMIC CHARGES
----------------------
   0 C :   -0.244305
   1 C :   -0.483120
   2 O :    0.083369
   3 O :    0.274058
   4 C :   -0.294895
   5 H :    0.180001
   6 H :    0.123441
   7 H :    0.120579
   8 C :   -0.271637
   9 C :   -0.147823
  10 C :   -0.107114
  11 C :   -0.105830
  12 C :   -0.163546
  13 C :   -0.143108
  14 C :   -0.138827
  15 C :   -0.229821
  16 O :    0.248367
  17 C :   -0.324046
  18 N :    0.047779
  19 O :   -0.215266
  20 H :    0.185888
  21 H :    0.163799
  22 H :    0.152679
  23 H :    0.155140
  24 H :    0.160709
  25 H :    0.121994
  26 H :    0.117650
  27 H :    0.117683
  28 O :    0.171228
  29 H :    0.120897
  30 N :    0.150190
  31 C :   -0.283169
  32 H :    0.130741
  33 H :    0.131471
  34 H :    0.120246
  35 C :   -0.293524
  36 H :    0.126094
  37 H :    0.116910
  38 H :    0.125118

  Mayer bond orders larger than 0.100000
B(  0-C ,  1-C ) :   0.9493 B(  0-C ,  5-H ) :   0.9139 B(  0-C ,  9-C ) :   0.9180
B(  0-C , 28-O ) :   1.0090 B(  1-C ,  2-O ) :   1.9668 B(  1-C ,  3-O ) :   1.2827
B(  3-O ,  4-C ) :   0.8877 B(  4-C ,  6-H ) :   0.9619 B(  4-C ,  7-H ) :   0.9666
B(  4-C , 29-H ) :   0.9668 B(  8-C ,  9-C ) :   0.9948 B(  8-C , 18-N ) :   1.5717
B(  8-C , 19-O ) :   0.2284 B(  8-C , 30-N ) :   1.3271 B(  9-C , 10-C ) :   0.8072
B(  9-C , 20-H ) :   0.9675 B( 10-C , 11-C ) :   1.3381 B( 10-C , 15-C ) :   1.3076
B( 11-C , 12-C ) :   1.4033 B( 11-C , 21-H ) :   0.9725 B( 12-C , 13-C ) :   1.4128
B( 12-C , 22-H ) :   0.9814 B( 13-C , 14-C ) :   1.3880 B( 13-C , 23-H ) :   0.9644
B( 14-C , 15-C ) :   1.3837 B( 14-C , 24-H ) :   0.9599 B( 15-C , 16-O ) :   1.1352
B( 16-O , 17-C ) :   0.9375 B( 17-C , 25-H ) :   0.9642 B( 17-C , 26-H ) :   0.9622
B( 17-C , 27-H ) :   0.9621 B( 18-N , 19-O ) :   1.3156 B( 18-N , 28-O ) :   0.8198
B( 30-N , 31-C ) :   0.9508 B( 30-N , 35-C ) :   0.9398 B( 31-C , 32-H ) :   0.9570
B( 31-C , 33-H ) :   0.9571 B( 31-C , 34-H ) :   0.9577 B( 35-C , 36-H ) :   0.9634
B( 35-C , 37-H ) :   0.9516 B( 35-C , 38-H ) :   0.9533

Dispersion correction           -0.043175362
FINAL SINGLE POINT ENERGY     -1029.120712287528

DIPOLE MOMENT
-------------
                                X             Y             Z
Electronic contribution:      0.46869      -8.99473       6.18144
Nuclear contribution   :     -2.06047      10.61638      -8.24885
                        -----------------------------------------
Total Dipole Moment    :     -1.59178       1.62165      -2.06741
                        -----------------------------------------
Magnitude (a.u.)       :      3.07208
Magnitude (Debye)      :      7.80861

Dispersion correction in the Hessian             ... done   (      0.6 sec)

VIBRATIONAL FREQUENCIES
-----------------------

Scaling factor for frequencies =  1.000000000  (already applied!)

   0:         0.00 cm**-1
   1:         0.00 cm**-1
   2:         0.00 cm**-1
   3:         0.00 cm**-1
   4:         0.00 cm**-1
   5:         0.00 cm**-1
   6:        18.23 cm**-1
   7:        19.20 cm**-1
   8:        41.24 cm**-1
   9:        58.77 cm**-1
  10:        62.91 cm**-1
  11:        85.56 cm**-1
  12:        98.93 cm**-1
  13:       100.11 cm**-1
  14:       137.26 cm**-1
  15:       145.65 cm**-1
  16:       152.81 cm**-1
  17:       171.23 cm**-1
  18:       180.97 cm**-1
  19:       194.32 cm**-1
  20:       215.00 cm**-1
  21:       237.83 cm**-1
  22:       241.63 cm**-1
  23:       250.84 cm**-1
  24:       268.19 cm**-1
  25:       303.20 cm**-1
  26:       311.83 cm**-1
  27:       337.61 cm**-1
  28:       367.06 cm**-1
  29:       383.59 cm**-1
  30:       432.22 cm**-1
  31:       450.86 cm**-1
  32:       477.42 cm**-1
  33:       496.38 cm**-1
  34:       533.22 cm**-1
  35:       557.78 cm**-1
  36:       567.06 cm**-1
  37:       599.80 cm**-1
  38:       607.42 cm**-1
  39:       652.21 cm**-1
  40:       692.79 cm**-1
  41:       719.98 cm**-1
  42:       765.04 cm**-1
  43:       771.71 cm**-1
  44:       784.76 cm**-1
  45:       818.31 cm**-1
  46:       845.83 cm**-1
  47:       874.65 cm**-1
  48:       880.02 cm**-1
  49:       907.28 cm**-1
  50:       928.09 cm**-1
  51:       966.83 cm**-1
  52:       995.14 cm**-1
  53:      1001.71 cm**-1
  54:      1039.78 cm**-1
  55:      1061.89 cm**-1
  56:      1071.26 cm**-1
  57:      1081.11 cm**-1
  58:      1083.74 cm**-1
  59:      1095.35 cm**-1
  60:      1119.47 cm**-1
  61:      1137.01 cm**-1
  62:      1160.64 cm**-1
  63:      1171.45 cm**-1
  64:      1171.87 cm**-1
  65:      1175.61 cm**-1
  66:      1193.26 cm**-1
  67:      1203.41 cm**-1
  68:      1209.69 cm**-1
  69:      1214.92 cm**-1
  70:      1233.55 cm**-1
  71:      1250.53 cm**-1
  72:      1286.49 cm**-1
  73:      1294.05 cm**-1
  74:      1304.68 cm**-1
  75:      1320.14 cm**-1
  76:      1322.03 cm**-1
  77:      1341.11 cm**-1
  78:      1364.82 cm**-1
  79:      1388.30 cm**-1
  80:      1429.70 cm**-1
  81:      1441.85 cm**-1
  82:      1466.00 cm**-1
  83:      1466.11 cm**-1
  84:      1469.50 cm**-1
  85:      1470.64 cm**-1
  86:      1471.89 cm**-1
  87:      1472.80 cm**-1
  88:      1474.22 cm**-1
  89:      1480.04 cm**-1
  90:      1480.44 cm**-1
  91:      1483.77 cm**-1
  92:      1498.45 cm**-1
  93:      1534.06 cm**-1
  94:      1536.99 cm**-1
  95:      1649.10 cm**-1
  96:      1663.42 cm**-1
  97:      1768.36 cm**-1
  98:      1787.64 cm**-1
  99:      3015.04 cm**-1
 100:      3018.95 cm**-1
 101:      3037.68 cm**-1
 102:      3075.48 cm**-1
 103:      3109.34 cm**-1
 104:      3109.38 cm**-1
 105:      3113.02 cm**-1
 106:      3125.52 cm**-1
 107:      3132.25 cm**-1
 108:      3160.41 cm**-1
 109:      3160.63 cm**-1
 110:      3167.24 cm**-1
 111:      3168.53 cm**-1
 112:      3187.37 cm**-1
 113:      3194.73 cm**-1
 114:      3196.42 cm**-1
 115:      3215.11 cm**-1
 116:      3231.06 cm**-1

IR SPECTRUM
-----------

 Mode   freq       eps      Int      T**2         TX        TY        TZ
       cm**-1   L/(mol*cm) km/mol    a.u.
----------------------------------------------------------------------------
  6:     18.23   0.000090    0.45  0.001535  ( 0.033842 -0.008480  0.017835)
  7:     19.20   0.000895    4.52  0.014542  ( 0.056889  0.088211 -0.059369)
  8:     41.24   0.000415    2.10  0.003137  ( 0.043316  0.023046 -0.027011)
  9:     58.77   0.000397    2.01  0.002108  (-0.028534  0.033683  0.012627)
 10:     62.91   0.000506    2.56  0.002508  ( 0.015368  0.047317 -0.005720)
 11:     85.56   0.000228    1.15  0.000830  ( 0.009034  0.022995  0.014823)
 12:     98.93   0.000867    4.38  0.002734  ( 0.000246  0.040777  0.032729)
 13:    100.11   0.002432   12.29  0.007581  (-0.043213 -0.028410  0.070049)
 14:    137.26   0.000061    0.31  0.000139  (-0.009006  0.005155  0.005639)
 15:    145.65   0.000350    1.77  0.000751  (-0.021547 -0.007347  0.015251)
 16:    152.81   0.000132    0.67  0.000270  ( 0.009300  0.012925 -0.004115)
 17:    171.23   0.000503    2.54  0.000916  (-0.020926 -0.014414  0.016439)
 18:    180.97   0.000070    0.35  0.000120  ( 0.006304  0.005836  0.006818)
 19:    194.32   0.001296    6.55  0.002081  ( 0.024647  0.037351 -0.008840)
 20:    215.00   0.001023    5.17  0.001484  (-0.026391 -0.022742  0.016447)
 21:    237.83   0.001483    7.50  0.001947  ( 0.040845  0.015341  0.006547)
 22:    241.63   0.002325   11.75  0.003003  ( 0.036543  0.016272 -0.037453)
 23:    250.84   0.001033    5.22  0.001285  (-0.000658  0.029038 -0.021007)
 24:    268.19   0.004422   22.35  0.005145  (-0.005265 -0.070572  0.011699)
 25:    303.20   0.000365    1.84  0.000375  (-0.004526 -0.018764  0.001658)
 26:    311.83   0.000533    2.69  0.000533  ( 0.016529  0.013251  0.009180)
 27:    337.61   0.005203   26.29  0.004809  (-0.053814  0.041808  0.012862)
 28:    367.06   0.004368   22.07  0.003713  (-0.033910 -0.024952  0.044055)
 29:    383.59   0.000871    4.40  0.000709  (-0.008918 -0.003723  0.024803)
 30:    432.22   0.002082   10.52  0.001503  ( 0.024631 -0.028511  0.009146)
 31:    450.86   0.000562    2.84  0.000389  (-0.010329 -0.016177  0.004548)
 32:    477.42   0.000721    3.65  0.000471  ( 0.010293  0.018900 -0.002883)
 33:    496.38   0.001190    6.01  0.000748  (-0.026071  0.002843  0.007761)
 34:    533.22   0.007689   38.86  0.004500  ( 0.035652  0.032056 -0.046918)
 35:    557.78   0.000885    4.47  0.000495  ( 0.011370 -0.018649 -0.004268)
 36:    567.06   0.001439    7.27  0.000792  ( 0.015645 -0.006781 -0.022388)
 37:    599.80   0.000605    3.06  0.000315  ( 0.011671  0.004688  0.012514)
 38:    607.42   0.004653   23.52  0.002391  ( 0.042535  0.018324  0.015676)
 39:    652.21   0.002866   14.49  0.001371  ( 0.002711 -0.036372 -0.006418)
 40:    692.79   0.003376   17.06  0.001521  ( 0.027642 -0.027464  0.001580)
 41:    719.98   0.003295   16.65  0.001428  (-0.028189 -0.021504 -0.013075)
 42:    765.04   0.003956   19.99  0.001614  ( 0.020849  0.020848 -0.027281)
 43:    771.71   0.022083  111.60  0.008930  (-0.035808 -0.076177  0.042952)
 44:    784.76   0.000791    4.00  0.000315  ( 0.006562  0.003638  0.016074)
 45:    818.31   0.006078   30.72  0.002318  ( 0.004329  0.032408  0.035341)
 46:    845.83   0.006215   31.41  0.002293  (-0.011182  0.046489  0.002588)
 47:    874.65   0.011026   55.72  0.003934  ( 0.052842  0.026416  0.021071)
 48:    880.02   0.016577   83.77  0.005878  ( 0.066528  0.019388  0.032809)
 49:    907.28   0.010160   51.35  0.003495  ( 0.019913  0.054302 -0.012227)
 50:    928.09   0.003419   17.28  0.001150  (-0.007622  0.023224  0.023500)
 51:    966.83   0.000467    2.36  0.000151  (-0.007631 -0.009333  0.002302)
 52:    995.14   0.000355    1.79  0.000111  ( 0.003608  0.009775  0.001633)
 53:   1001.71   0.029125  147.19  0.009073  (-0.048788 -0.078896 -0.021647)
 54:   1039.78   0.020572  103.96  0.006174  ( 0.022614  0.073908  0.014154)
 55:   1061.89   0.013739   69.43  0.004037  ( 0.039963 -0.035298 -0.034561)
 56:   1071.26   0.014374   72.64  0.004187  ( 0.055072 -0.010207  0.032408)
 57:   1081.11   0.002871   14.51  0.000829  ( 0.007413 -0.007056  0.026907)
 58:   1083.74   0.009583   48.43  0.002759  ( 0.009633  0.021260  0.047058)
 59:   1095.35   0.007346   37.12  0.002093  ( 0.022892  0.013703  0.037161)
 60:   1119.47   0.000502    2.54  0.000140  ( 0.000518  0.011704 -0.001675)
 61:   1137.01   0.008543   43.17  0.002345  ( 0.028187  0.011164  0.037756)
 62:   1160.64   0.012935   65.37  0.003478  ( 0.003592 -0.037260  0.045569)
 63:   1171.45   0.000219    1.11  0.000058  ( 0.002343  0.006129 -0.003907)
 64:   1171.87   0.000193    0.98  0.000051  ( 0.001397  0.005376 -0.004541)
 65:   1175.61   0.002047   10.35  0.000544  ( 0.018292 -0.002437  0.014247)
 66:   1193.26   0.001446    7.31  0.000378  ( 0.000886 -0.001178 -0.019387)
 67:   1203.41   0.004571   23.10  0.001185  (-0.006344 -0.000515 -0.033834)
 68:   1209.69   0.000607    3.07  0.000157  ( 0.010404 -0.002699 -0.006418)
 69:   1214.92   0.003354   16.95  0.000861  ( 0.025233 -0.002673  0.014749)
 70:   1233.55   0.018081   91.37  0.004574  ( 0.046240 -0.002603  0.049288)
 71:   1250.53   0.005995   30.30  0.001496  ( 0.022256 -0.001490  0.031600)
 72:   1286.49   0.009154   46.26  0.002221  (-0.013203  0.044343  0.008940)
 73:   1294.05   0.078002  394.19  0.018810  ( 0.084059 -0.013130  0.107574)
 74:   1304.68   0.022109  111.73  0.005288  (-0.006535 -0.037904 -0.061715)
 75:   1320.14   0.054289  274.35  0.012833  ( 0.063740 -0.074950 -0.056150)
 76:   1322.03   0.074376  375.87  0.017556  (-0.104134  0.078221 -0.024369)
 77:   1341.11   0.015516   78.41  0.003610  ( 0.034492 -0.029770  0.039171)
 78:   1364.82   0.019476   98.42  0.004453  (-0.057380  0.023875 -0.024304)
 79:   1388.30   0.010076   50.92  0.002265  (-0.016804  0.003824 -0.044362)
 80:   1429.70   0.009525   48.14  0.002079  (-0.001038 -0.040253  0.021393)
 81:   1441.85   0.015750   79.59  0.003409  ( 0.003723 -0.054713  0.020035)
 82:   1466.00   0.003605   18.22  0.000767  ( 0.014418  0.018558 -0.014668)
 83:   1466.11   0.004580   23.15  0.000975  (-0.002526 -0.020081 -0.023775)
 84:   1469.50   0.011419   57.70  0.002425  ( 0.032045 -0.034382 -0.014691)
 85:   1470.64   0.000205    1.04  0.000044  (-0.003130  0.004566  0.003593)
 86:   1471.89   0.005716   28.89  0.001212  ( 0.007730  0.014021 -0.030911)
 87:   1472.80   0.002655   13.42  0.000563  ( 0.018505 -0.003100  0.014511)
 88:   1474.22   0.003308   16.72  0.000700  ( 0.011414  0.017408 -0.016339)
 89:   1480.04   0.009573   48.38  0.002018  (-0.043077 -0.005631 -0.011451)
 90:   1480.44   0.003771   19.06  0.000795  ( 0.011698 -0.005957 -0.024950)
 91:   1483.77   0.004816   24.34  0.001013  ( 0.001586 -0.018610 -0.025771)
 92:   1498.45   0.012676   64.06  0.002640  (-0.011612 -0.020751 -0.045546)
 93:   1534.06   0.055048  278.19  0.011198  (-0.019325  0.099454 -0.030551)
 94:   1536.99   0.043585  220.26  0.008849  ( 0.015820  0.002811  0.092688)
 95:   1649.10   0.006333   32.01  0.001199  ( 0.025166  0.002116  0.023680)
 96:   1663.42   0.015321   77.42  0.002874  (-0.002241 -0.024420 -0.047674)
 97:   1768.36   0.067167  339.44  0.011853  ( 0.095941  0.028355  0.042946)
 98:   1787.64   0.081926  414.02  0.014302  (-0.078245 -0.016096 -0.088997)
 99:   3015.04   0.013773   69.60  0.001426  ( 0.002108  0.030781  0.021763)
100:   3018.95   0.023081  116.64  0.002386  ( 0.021325 -0.041429  0.014653)
101:   3037.68   0.012064   60.97  0.001239  (-0.025557  0.001769 -0.024146)
102:   3075.48   0.005274   26.65  0.000535  ( 0.010481 -0.015960 -0.013059)
103:   3109.34   0.007851   39.68  0.000788  ( 0.013447  0.021572 -0.011908)
104:   3109.38   0.009662   48.83  0.000970  (-0.028900 -0.006149  0.009833)
105:   3113.02   0.001758    8.88  0.000176  ( 0.005674 -0.003776 -0.011391)
106:   3125.52   0.001187    6.00  0.000118  ( 0.010439  0.003062 -0.000342)
107:   3132.25   0.000854    4.31  0.000085  (-0.005505 -0.003906 -0.006284)
108:   3160.41   0.003232   16.33  0.000319  (-0.007914 -0.013370  0.008816)
109:   3160.63   0.002860   14.45  0.000282  (-0.006474 -0.013633 -0.007387)
110:   3167.24   0.003743   18.91  0.000369  (-0.005019  0.010914  0.014983)
111:   3168.53   0.000399    2.02  0.000039  ( 0.002195 -0.000810 -0.005818)
112:   3187.37   0.000505    2.55  0.000049  (-0.005869  0.001496 -0.003578)
113:   3194.73   0.001898    9.59  0.000185  (-0.011455  0.003334 -0.006558)
114:   3196.42   0.001536    7.76  0.000150  ( 0.010813 -0.005750  0.000099)
115:   3215.11   0.002765   13.97  0.000268  ( 0.002567 -0.008888 -0.013520)
116:   3231.06   0.000396    2.00  0.000038  ( 0.005098 -0.001106  0.003322)

--------------------------
THERMOCHEMISTRY AT 298.15K
--------------------------

Temperature         ... 298.15 K
Pressure            ... 1.00 atm
Total Mass          ... 294.31 AMU

Throughout the following assumptions are being made:
  (1) The electronic state is orbitally nondegenerate
  (2) There are no thermally accessible electronically excited states
  (3) Hindered rotations indicated by low frequency modes are not
      treated as such but are treated as vibrations and this may
      cause some error
  (4) All equations used are the standard statistical mechanics
      equations for an ideal gas
  (5) All vibrations are strictly harmonic

freq.      18.23  E(vib)   ...       0.57
freq.      19.20  E(vib)   ...       0.57
freq.      41.24  E(vib)   ...       0.54
freq.      58.77  E(vib)   ...       0.51
freq.      62.91  E(vib)   ...       0.51
freq.      85.56  E(vib)   ...       0.48
freq.      98.93  E(vib)   ...       0.46
freq.     100.11  E(vib)   ...       0.46
freq.     137.26  E(vib)   ...       0.42
freq.     145.65  E(vib)   ...       0.41
freq.     152.81  E(vib)   ...       0.40
freq.     171.23  E(vib)   ...       0.38
freq.     180.97  E(vib)   ...       0.37
freq.     194.32  E(vib)   ...       0.36
freq.     215.00  E(vib)   ...       0.34
freq.     237.83  E(vib)   ...       0.32
freq.     241.63  E(vib)   ...       0.31
freq.     250.84  E(vib)   ...       0.30
freq.     268.19  E(vib)   ...       0.29
freq.     303.20  E(vib)   ...       0.26
freq.     311.83  E(vib)   ...       0.25
freq.     337.61  E(vib)   ...       0.24
freq.     367.06  E(vib)   ...       0.22
freq.     383.59  E(vib)   ...       0.20
freq.     432.22  E(vib)   ...       0.18
freq.     450.86  E(vib)   ...       0.17
freq.     477.42  E(vib)   ...       0.15
freq.     496.38  E(vib)   ...       0.14
freq.     533.22  E(vib)   ...       0.13
freq.     557.78  E(vib)   ...       0.12
freq.     567.06  E(vib)   ...       0.11
freq.     599.80  E(vib)   ...       0.10
freq.     607.42  E(vib)   ...       0.10
freq.     652.21  E(vib)   ...       0.08
freq.     692.79  E(vib)   ...       0.07
freq.     719.98  E(vib)   ...       0.07
freq.     765.04  E(vib)   ...       0.06
freq.     771.71  E(vib)   ...       0.05
freq.     784.76  E(vib)   ...       0.05
freq.     818.31  E(vib)   ...       0.05
freq.     845.83  E(vib)   ...       0.04
freq.     874.65  E(vib)   ...       0.04
freq.     880.02  E(vib)   ...       0.04
freq.     907.28  E(vib)   ...       0.03
freq.     928.09  E(vib)   ...       0.03
freq.     966.83  E(vib)   ...       0.03
freq.     995.14  E(vib)   ...       0.02
freq.    1001.71  E(vib)   ...       0.02
freq.    1039.78  E(vib)   ...       0.02
freq.    1061.89  E(vib)   ...       0.02
freq.    1071.26  E(vib)   ...       0.02
freq.    1081.11  E(vib)   ...       0.02
freq.    1083.74  E(vib)   ...       0.02
freq.    1095.35  E(vib)   ...       0.02
freq.    1119.47  E(vib)   ...       0.01
freq.    1137.01  E(vib)   ...       0.01
freq.    1160.64  E(vib)   ...       0.01
freq.    1171.45  E(vib)   ...       0.01
freq.    1171.87  E(vib)   ...       0.01
freq.    1175.61  E(vib)   ...       0.01
freq.    1193.26  E(vib)   ...       0.01
freq.    1203.41  E(vib)   ...       0.01
freq.    1209.69  E(vib)   ...       0.01
freq.    1214.92  E(vib)   ...       0.01
freq.    1233.55  E(vib)   ...       0.01
freq.    1250.53  E(vib)   ...       0.01
freq.    1286.49  E(vib)   ...       0.01
freq.    1294.05  E(vib)   ...       0.01
freq.    1304.68  E(vib)   ...       0.01
freq.    1320.14  E(vib)   ...       0.01
freq.    1322.03  E(vib)   ...       0.01
freq.    1341.11  E(vib)   ...       0.01
freq.    1364.82  E(vib)   ...       0.01
freq.    1388.30  E(vib)   ...       0.00
freq.    1429.70  E(vib)   ...       0.00
freq.    1441.85  E(vib)   ...       0.00
freq.    1466.00  E(vib)   ...       0.00
freq.    1466.11  E(vib)   ...       0.00
freq.    1469.50  E(vib)   ...       0.00
freq.    1470.64  E(vib)   ...       0.00
freq.    1471.89  E(vib)   ...       0.00
freq.    1472.80  E(vib)   ...       0.00
freq.    1474.22  E(vib)   ...       0.00
freq.    1480.04  E(vib)   ...       0.00
freq.    1480.44  E(vib)   ...       0.00
freq.    1483.77  E(vib)   ...       0.00
freq.    1498.45  E(vib)   ...       0.00
freq.    1534.06  E(vib)   ...       0.00
freq.    1536.99  E(vib)   ...       0.00
freq.    1649.10  E(vib)   ...       0.00
freq.    1663.42  E(vib)   ...       0.00
freq.    1768.36  E(vib)   ...       0.00
freq.    1787.64  E(vib)   ...       0.00
freq.    3015.04  E(vib)   ...       0.00
freq.    3018.95  E(vib)   ...       0.00
freq.    3037.68  E(vib)   ...       0.00
freq.    3075.48  E(vib)   ...       0.00
freq.    3109.34  E(vib)   ...       0.00
freq.    3109.38  E(vib)   ...       0.00
freq.    3113.02  E(vib)   ...       0.00
freq.    3125.52  E(vib)   ...       0.00
freq.    3132.25  E(vib)   ...       0.00
freq.    3160.41  E(vib)   ...       0.00
freq.    3160.63  E(vib)   ...       0.00
freq.    3167.24  E(vib)   ...       0.00
freq.    3168.53  E(vib)   ...       0.00
freq.    3187.37  E(vib)   ...       0.00
freq.    3194.73  E(vib)   ...       0.00
freq.    3196.42  E(vib)   ...       0.00
freq.    3215.11  E(vib)   ...       0.00
freq.    3231.06  E(vib)   ...       0.00

------------
INNER ENERGY
------------

The inner energy is: U= E(el) + E(ZPE) + E(vib) + E(rot) + E(trans)
    E(el)   - is the total energy from the electronic structure calculation
              = E(kin-el) + E(nuc-el) + E(el-el) + E(nuc-nuc)
    E(ZPE)  - the the zero temperature vibrational energy from the frequency calculation
    E(vib)  - the the finite temperature correction to E(ZPE) due to population
              of excited vibrational states
    E(rot)  - is the rotational thermal energy
    E(trans)- is the translational thermal energy

Summary of contributions to the inner energy U:
Electronic energy                ...  -1029.12071229 Eh
Zero point energy                ...      0.31545747 Eh     197.95 kcal/mol
Thermal vibrational correction   ...      0.01812160 Eh      11.37 kcal/mol
Thermal rotational correction    ...      0.00141627 Eh       0.89 kcal/mol
Thermal translational correction ...      0.00141627 Eh       0.89 kcal/mol
-----------------------------------------------------------------------
Total thermal energy                  -1028.78430067 Eh

Summary of corrections to the electronic energy:
(perhaps to be used in another calculation)
Total thermal correction                  0.02095414 Eh      13.15 kcal/mol
Non-thermal (ZPE) correction              0.31545747 Eh     197.95 kcal/mol
-----------------------------------------------------------------------
Total correction                          0.33641162 Eh     211.10 kcal/mol

--------

Rotational constants in cm-1:     0.013389     0.009027     0.006702

                             ****ORCA TERMINATED NORMALLY****
TOTAL RUN TIME: 0 days 0 hours 45 minutes 46 seconds 953 msec
