                         Program Version 5.0.4 -  RELEASE  -
|  1> %pal nprocs 24 end
|  2> %maxcore 3500
|  3> ! PBE0 D3BJ def2-TZVP TightSCF OPT FREQ TightOpt
|  4> ! CPCM(dmso)
|  5> %scf
|  6> MaxIter 800
|  7> end
|  8> %geom
|  9> MaxIter 800
| 10> MaxStep 0.2
| 11> end
| 12> *xyz 0 1
| 13> C       -0.173234858     -1.067997995      0.558411283
| 14> C       -0.522436333     -2.213684274     -0.384093825
| 15> O       -1.262325715     -2.049794044     -1.333024012
| 16> O        0.073080618     -3.354750648     -0.052912840
| 17> C       -0.191057663     -4.470081693     -0.914843661
| 18> H       -1.101444975     -0.624314032      0.917523915
| 19> H        0.148496824     -4.243974184     -1.937000577
| 20> H       -1.267101600     -4.691128805     -0.916504817
| 21> C        2.050195576     -0.580461404      0.288427869
| 22> C        0.736852312     -0.032539113     -0.139442911
| 23> C        0.502846785      1.388233026      0.314478168
| 24> C        1.294267119      2.007862396      1.268048244
| 25> C        1.042094363      3.312518724      1.675238569
| 26> C       -0.020833143      4.002522073      1.117472941
| 27> C       -0.833904657      3.402127973      0.163794270
| 28> C       -0.577253023      2.095436195     -0.235798259
| 29> O       -1.317445219      1.420900939     -1.138762544
| 30> C       -2.427264148      2.078034316     -1.722952620
| 31> N        1.930320188     -1.369333059      1.312990623
| 32> O        2.759446804     -1.966891511      1.999091851
| 33> H        0.609727626     -0.098799016     -1.221140131
| 34> H        2.126750231      1.466152983      1.704707445
| 35> H        1.673887694      3.780207581      2.420597435
| 36> H       -0.230249773      5.021613968      1.422645613
| 37> H       -1.662989104      3.953646683     -0.259202861
| 38> H       -2.112173801      2.967651727     -2.275260931
| 39> H       -3.160413916      2.361582834     -0.962540942
| 40> H       -2.872960347      1.361136561     -2.409245635
| 41> O        0.566956484     -1.500921286      1.690744138
| 42> H        0.378815091     -5.306556174     -0.492440867
| 43> N        3.231857439     -0.235061213     -0.310720010
| 44> N        4.307733459     -0.644690483      0.132395820
| 45> N        5.363217752     -0.918397546      0.384621701
| 46> **                         ****END OF INPUT****
 Total Charge           Charge          ....    0
 Multiplicity           Mult            ....    1
 Number of Electrons    NEL             ....  152
Dispersion correction           -0.036937305
FINAL SINGLE POINT ENERGY     -1058.729913201090
Dispersion correction            ... done
Dispersion correction           -0.036961310
FINAL SINGLE POINT ENERGY     -1058.730385816844
Dispersion correction            ... done
Dispersion correction           -0.036956787
FINAL SINGLE POINT ENERGY     -1058.730384425563
Dispersion correction            ... done
FINAL SINGLE POINT ENERGY     -1058.730352070005
FINAL SINGLE POINT ENERGY     -1058.730377615586
FINAL SINGLE POINT ENERGY     -1058.730383926746
FINAL SINGLE POINT ENERGY     -1058.730397923260
FINAL SINGLE POINT ENERGY     -1058.730409882577
FINAL SINGLE POINT ENERGY     -1058.730423860148
Dispersion correction           -0.036892108
FINAL SINGLE POINT ENERGY     -1058.730428976813
Dispersion correction            ... done
Dispersion correction           -0.036892090
FINAL SINGLE POINT ENERGY     -1058.730429759275
Dispersion correction            ... done
                    ***********************HURRAY********************

CARTESIAN COORDINATES (ANGSTROEM)
---------------------------------
  C     -0.136693   -1.076112    0.549316
  C     -0.484747   -2.215268   -0.401141
  O     -1.148741   -2.028876   -1.389055
  O      0.008453   -3.378030   -0.025597
  C     -0.277684   -4.488150   -0.887090
  H     -1.066862   -0.644756    0.918588
  H      0.125106   -4.301700   -1.882388
  H     -1.354191   -4.645865   -0.947823
  C      2.078744   -0.560965    0.275243
  C      0.757541   -0.026046   -0.144043
  C      0.507439    1.389233    0.317545
  C      1.285543    2.008366    1.282259
  C      1.018078    3.306943    1.698672
  C     -0.046649    3.991541    1.138373
  C     -0.846391    3.391590    0.173320
  C     -0.574995    2.090635   -0.235036
  O     -1.302966    1.416973   -1.148808
  C     -2.411865    2.070722   -1.738091
  N      1.971996   -1.362190    1.291917
  O      2.811176   -1.955007    1.969893
  H      0.625532   -0.089646   -1.225047
  H      2.119526    1.470614    1.720531
  H      1.639458    3.774241    2.452852
  H     -0.267953    5.006021    1.450251
  H     -1.676967    3.938962   -0.251567
  H     -2.098062    2.966580   -2.280857
  H     -3.153855    2.343471   -0.982525
  H     -2.846166    1.355958   -2.433810
  O      0.612002   -1.513853    1.673629
  H      0.210090   -5.344749   -0.430496
  N      3.254628   -0.193140   -0.321859
  N      4.336717   -0.592483    0.115430
  N      5.396214   -0.854763    0.362716

 Multiplicity           Mult            ....    1
 Number of Electrons    NEL             ....  152
 Basis Dimension        Dim             ....  723

ORBITAL ENERGIES
----------------

  NO   OCC          E(Eh)            E(eV)
   0   2.0000     -19.287595      -524.8421
   1   2.0000     -19.272832      -524.4404
   2   2.0000     -19.248471      -523.7775
   3   2.0000     -19.222641      -523.0747
   4   2.0000     -19.210355      -522.7403
   5   2.0000     -14.584197      -396.8562
   6   2.0000     -14.582552      -396.8114
   7   2.0000     -14.480625      -394.0378
   8   2.0000     -14.469322      -393.7303
   9   2.0000     -10.366747      -282.0935
  10   2.0000     -10.332690      -281.1668
  11   2.0000     -10.317431      -280.7516
  12   2.0000     -10.294148      -280.1180
  13   2.0000     -10.276002      -279.6242
  14   2.0000     -10.274071      -279.5717
  15   2.0000     -10.267656      -279.3971
  16   2.0000     -10.245462      -278.7932
  17   2.0000     -10.234391      -278.4919
  18   2.0000     -10.231740      -278.4198
  19   2.0000     -10.228090      -278.3205
  20   2.0000     -10.223638      -278.1993
  21   2.0000      -1.236622       -33.6502
  22   2.0000      -1.206670       -32.8352
  23   2.0000      -1.162837       -31.6424
  24   2.0000      -1.111546       -30.2467
  25   2.0000      -1.102689       -30.0057
  26   2.0000      -1.069163       -29.0934
  27   2.0000      -1.053999       -28.6808
  28   2.0000      -0.921771       -25.0827
  29   2.0000      -0.892389       -24.2832
  30   2.0000      -0.845836       -23.0164
  31   2.0000      -0.794413       -21.6171
  32   2.0000      -0.781577       -21.2678
  33   2.0000      -0.761077       -20.7100
  34   2.0000      -0.738931       -20.1073
  35   2.0000      -0.723914       -19.6987
  36   2.0000      -0.703489       -19.1429
  37   2.0000      -0.637973       -17.3601
  38   2.0000      -0.631409       -17.1815
  39   2.0000      -0.614630       -16.7249
  40   2.0000      -0.591509       -16.0958
  41   2.0000      -0.579552       -15.7704
  42   2.0000      -0.563812       -15.3421
  43   2.0000      -0.558757       -15.2046
  44   2.0000      -0.551624       -15.0104
  45   2.0000      -0.543324       -14.7846
  46   2.0000      -0.524887       -14.2829
  47   2.0000      -0.518107       -14.0984
  48   2.0000      -0.514693       -14.0055
  49   2.0000      -0.509465       -13.8632
  50   2.0000      -0.502625       -13.6771
  51   2.0000      -0.495735       -13.4896
  52   2.0000      -0.489727       -13.3261
  53   2.0000      -0.476501       -12.9662
  54   2.0000      -0.462853       -12.5949
  55   2.0000      -0.458946       -12.4885
  56   2.0000      -0.447215       -12.1693
  57   2.0000      -0.438305       -11.9269
  58   2.0000      -0.433477       -11.7955
  59   2.0000      -0.422032       -11.4841
  60   2.0000      -0.406871       -11.0715
  61   2.0000      -0.391603       -10.6561
  62   2.0000      -0.388129       -10.5615
  63   2.0000      -0.383744       -10.4422
  64   2.0000      -0.375000       -10.2043
  65   2.0000      -0.368827       -10.0363
  66   2.0000      -0.359817        -9.7911
  67   2.0000      -0.356276        -9.6948
  68   2.0000      -0.345560        -9.4032
  69   2.0000      -0.343966        -9.3598
  70   2.0000      -0.337466        -9.1829
  71   2.0000      -0.319439        -8.6924
  72   2.0000      -0.305948        -8.3253
  73   2.0000      -0.274455        -7.4683
  74   2.0000      -0.243262        -6.6195
  75   2.0000      -0.237128        -6.4526
  76   0.0000      -0.049339        -1.3426
  77   0.0000      -0.043698        -1.1891
  78   0.0000      -0.019266        -0.5243
  79   0.0000      -0.006733        -0.1832
  80   0.0000       0.001221         0.0332

MULLIKEN ATOMIC CHARGES
-----------------------
   0 C :    0.106212
   1 C :    0.259522
   2 O :   -0.387483
   3 O :   -0.212501
   4 C :   -0.260495
   5 H :    0.178699
   6 H :    0.158619
   7 H :    0.158454
   8 C :    0.071205
   9 C :    0.078380
  10 C :   -0.046072
  11 C :   -0.177900
  12 C :   -0.212182
  13 C :   -0.146514
  14 C :   -0.287820
  15 C :    0.226564
  16 O :   -0.250370
  17 C :   -0.283160
  18 N :    0.367347
  19 O :   -0.481855
  20 H :    0.139943
  21 H :    0.162743
  22 H :    0.149483
  23 H :    0.153694
  24 H :    0.167003
  25 H :    0.152352
  26 H :    0.151420
  27 H :    0.162378
  28 O :   -0.216568
  29 H :    0.166057
  30 N :   -0.320940
  31 N :    0.427116
  32 N :   -0.153329
Sum of atomic charges:   -0.0000000

LOEWDIN ATOMIC CHARGES
----------------------
   0 C :   -0.229300
   1 C :   -0.484725
   2 O :    0.091460
   3 O :    0.275153
   4 C :   -0.292504
   5 H :    0.182648
   6 H :    0.121306
   7 H :    0.121459
   8 C :   -0.300388
   9 C :   -0.144883
  10 C :   -0.105931
  11 C :   -0.109148
  12 C :   -0.163092
  13 C :   -0.142595
  14 C :   -0.137878
  15 C :   -0.231108
  16 O :    0.252944
  17 C :   -0.322935
  18 N :    0.052243
  19 O :   -0.148478
  20 H :    0.189966
  21 H :    0.163334
  22 H :    0.152941
  23 H :    0.155393
  24 H :    0.161031
  25 H :    0.118089
  26 H :    0.117943
  27 H :    0.122050
  28 O :    0.188915
  29 H :    0.123996
  30 N :    0.066215
  31 N :    0.124743
  32 N :    0.031137

  Mayer bond orders larger than 0.100000
B(  0-C ,  1-C ) :   0.9596 B(  0-C ,  5-H ) :   0.9133 B(  0-C ,  9-C ) :   0.9376
B(  0-C , 28-O ) :   0.9853 B(  1-C ,  2-O ) :   1.9706 B(  1-C ,  3-O ) :   1.2822
B(  3-O ,  4-C ) :   0.8848 B(  4-C ,  6-H ) :   0.9662 B(  4-C ,  7-H ) :   0.9664
B(  4-C , 29-H ) :   0.9613 B(  8-C ,  9-C ) :   1.0064 B(  8-C , 18-N ) :   1.5758
B(  8-C , 19-O ) :   0.2095 B(  8-C , 30-N ) :   1.1825 B(  9-C , 10-C ) :   0.8917
B(  9-C , 20-H ) :   0.9352 B( 10-C , 11-C ) :   1.3677 B( 10-C , 15-C ) :   1.3065
B( 11-C , 12-C ) :   1.3992 B( 11-C , 21-H ) :   0.9767 B( 12-C , 13-C ) :   1.4169
B( 12-C , 22-H ) :   0.9797 B( 13-C , 14-C ) :   1.3872 B( 13-C , 23-H ) :   0.9647
B( 14-C , 15-C ) :   1.3764 B( 14-C , 24-H ) :   0.9586 B( 15-C , 16-O ) :   1.1449
B( 16-O , 17-C ) :   0.9347 B( 17-C , 25-H ) :   0.9616 B( 17-C , 26-H ) :   0.9616
B( 17-C , 27-H ) :   0.9645 B( 18-N , 19-O ) :   1.4308 B( 18-N , 28-O ) :   0.8495
B( 30-N , 31-N ) :   1.3446 B( 30-N , 32-N ) :   0.2905 B( 31-N , 32-N ) :   2.0592

Dispersion correction           -0.036893662
FINAL SINGLE POINT ENERGY     -1058.730428875804

DIPOLE MOMENT
-------------
                                X             Y             Z
Electronic contribution:     14.38410      -5.70422       4.66034
Nuclear contribution   :    -16.02036       6.77223      -5.88165
                        -----------------------------------------
Total Dipole Moment    :     -1.63626       1.06801      -1.22131
                        -----------------------------------------
Magnitude (a.u.)       :      2.30426
Magnitude (Debye)      :      5.85695

Dispersion correction in the Hessian             ... done   (      8.8 sec)

VIBRATIONAL FREQUENCIES
-----------------------

Scaling factor for frequencies =  1.000000000  (already applied!)

   0:         0.00 cm**-1
   1:         0.00 cm**-1
   2:         0.00 cm**-1
   3:         0.00 cm**-1
   4:         0.00 cm**-1
   5:         0.00 cm**-1
   6:         4.61 cm**-1
   7:        22.52 cm**-1
   8:        37.17 cm**-1
   9:        55.23 cm**-1
  10:        68.84 cm**-1
  11:        92.55 cm**-1
  12:       102.51 cm**-1
  13:       116.87 cm**-1
  14:       140.04 cm**-1
  15:       149.08 cm**-1
  16:       156.92 cm**-1
  17:       174.72 cm**-1
  18:       187.64 cm**-1
  19:       220.97 cm**-1
  20:       247.23 cm**-1
  21:       254.10 cm**-1
  22:       295.37 cm**-1
  23:       310.12 cm**-1
  24:       332.84 cm**-1
  25:       347.01 cm**-1
  26:       388.84 cm**-1
  27:       455.66 cm**-1
  28:       463.29 cm**-1
  29:       492.00 cm**-1
  30:       512.17 cm**-1
  31:       550.66 cm**-1
  32:       560.73 cm**-1
  33:       569.43 cm**-1
  34:       585.55 cm**-1
  35:       605.87 cm**-1
  36:       647.05 cm**-1
  37:       681.99 cm**-1
  38:       714.94 cm**-1
  39:       743.66 cm**-1
  40:       762.50 cm**-1
  41:       772.77 cm**-1
  42:       783.85 cm**-1
  43:       821.05 cm**-1
  44:       847.66 cm**-1
  45:       874.12 cm**-1
  46:       896.06 cm**-1
  47:       930.29 cm**-1
  48:       963.82 cm**-1
  49:       973.39 cm**-1
  50:       993.26 cm**-1
  51:      1019.07 cm**-1
  52:      1058.23 cm**-1
  53:      1070.62 cm**-1
  54:      1084.24 cm**-1
  55:      1088.61 cm**-1
  56:      1139.37 cm**-1
  57:      1171.34 cm**-1
  58:      1171.86 cm**-1
  59:      1176.43 cm**-1
  60:      1180.83 cm**-1
  61:      1201.05 cm**-1
  62:      1209.47 cm**-1
  63:      1215.42 cm**-1
  64:      1245.90 cm**-1
  65:      1285.35 cm**-1
  66:      1300.66 cm**-1
  67:      1308.69 cm**-1
  68:      1318.13 cm**-1
  69:      1326.66 cm**-1
  70:      1351.83 cm**-1
  71:      1358.07 cm**-1
  72:      1386.47 cm**-1
  73:      1464.51 cm**-1
  74:      1465.51 cm**-1
  75:      1468.99 cm**-1
  76:      1471.80 cm**-1
  77:      1473.73 cm**-1
  78:      1478.95 cm**-1
  79:      1482.99 cm**-1
  80:      1499.35 cm**-1
  81:      1537.82 cm**-1
  82:      1649.39 cm**-1
  83:      1664.19 cm**-1
  84:      1747.51 cm**-1
  85:      1794.60 cm**-1
  86:      2302.07 cm**-1
  87:      3039.32 cm**-1
  88:      3076.44 cm**-1
  89:      3111.36 cm**-1
  90:      3117.11 cm**-1
  91:      3142.37 cm**-1
  92:      3162.04 cm**-1
  93:      3167.40 cm**-1
  94:      3190.30 cm**-1
  95:      3196.35 cm**-1
  96:      3197.80 cm**-1
  97:      3215.75 cm**-1
  98:      3232.21 cm**-1

IR SPECTRUM
-----------

 Mode   freq       eps      Int      T**2         TX        TY        TZ
       cm**-1   L/(mol*cm) km/mol    a.u.
----------------------------------------------------------------------------
  6:      4.61   0.000000    0.00  0.000000  ( 0.000000  0.000000  0.000000)
  7:     22.52   0.000004    0.02  0.000057  (-0.005255  0.005280 -0.001314)
  8:     37.17   0.000052    0.26  0.000440  ( 0.002976  0.019833  0.006145)
  9:     55.23   0.000165    0.83  0.000933  ( 0.019625  0.010058  0.021135)
 10:     68.84   0.000089    0.45  0.000403  (-0.004844  0.015598 -0.011681)
 11:     92.55   0.000943    4.76  0.003179  (-0.009294 -0.044390 -0.033492)
 12:    102.51   0.001222    6.17  0.003719  (-0.033739 -0.012790  0.049164)
 13:    116.87   0.000341    1.72  0.000910  ( 0.003388 -0.017267 -0.024512)
 14:    140.04   0.000160    0.81  0.000358  (-0.017299 -0.005480  0.005321)
 15:    149.08   0.000321    1.62  0.000671  (-0.024006 -0.009056  0.003564)
 16:    156.92   0.000160    0.81  0.000319  (-0.002099 -0.000182 -0.017726)
 17:    174.72   0.000212    1.07  0.000379  ( 0.014324 -0.002633 -0.012935)
 18:    187.64   0.000748    3.78  0.001245  ( 0.031773  0.011593 -0.010039)
 19:    220.97   0.000540    2.73  0.000763  (-0.022130 -0.012232  0.011129)
 20:    247.23   0.000105    0.53  0.000133  (-0.005887  0.009789 -0.001615)
 21:    254.10   0.002111   10.67  0.002593  ( 0.014749  0.033473 -0.035421)
 22:    295.37   0.001760    8.89  0.001859  ( 0.034701  0.025545  0.001656)
 23:    310.12   0.000590    2.98  0.000594  ( 0.023886  0.003544 -0.003291)
 24:    332.84   0.006483   32.76  0.006078  ( 0.066844 -0.033493 -0.022094)
 25:    347.01   0.006726   33.99  0.006049  (-0.051056 -0.057049  0.013702)
 26:    388.84   0.003462   17.49  0.002778  (-0.002494  0.047050  0.023630)
 27:    455.66   0.000519    2.62  0.000356  ( 0.015586 -0.010392 -0.002182)
 28:    463.29   0.000613    3.10  0.000413  ( 0.018520  0.005847 -0.005954)
 29:    492.00   0.001337    6.76  0.000848  ( 0.001628  0.021689 -0.019362)
 30:    512.17   0.005449   27.53  0.003320  ( 0.033088 -0.012341 -0.045526)
 31:    550.66   0.002208   11.16  0.001251  ( 0.000063 -0.027446 -0.022318)
 32:    560.73   0.000544    2.75  0.000303  ( 0.016274 -0.002944  0.005406)
 33:    569.43   0.002557   12.92  0.001401  ( 0.022649 -0.026318 -0.013992)
 34:    585.55   0.002504   12.65  0.001334  (-0.036362 -0.001723 -0.003041)
 35:    605.87   0.000510    2.58  0.000263  ( 0.007450 -0.011186  0.009063)
 36:    647.05   0.000504    2.55  0.000243  (-0.005964  0.012505  0.007156)
 37:    681.99   0.004733   23.92  0.002166  ( 0.000837  0.046521  0.000955)
 38:    714.94   0.001017    5.14  0.000444  (-0.020786  0.002793  0.001968)
 39:    743.66   0.037883  191.44  0.015897  ( 0.124506  0.001497  0.019821)
 40:    762.50   0.012554   63.44  0.005138  ( 0.044565  0.014791 -0.054160)
 41:    772.77   0.014638   73.97  0.005911  ( 0.039788  0.033665 -0.056522)
 42:    783.85   0.001639    8.28  0.000653  (-0.012964  0.008131 -0.020456)
 43:    821.05   0.004858   24.55  0.001847  (-0.015458 -0.034029 -0.021206)
 44:    847.66   0.003693   18.66  0.001360  (-0.026843 -0.024295 -0.006992)
 45:    874.12   0.001575    7.96  0.000562  (-0.023474 -0.001160 -0.003168)
 46:    896.06   0.008047   40.67  0.002803  ( 0.021796 -0.033707  0.034515)
 47:    930.29   0.003006   15.19  0.001008  ( 0.008688  0.019112  0.023827)
 48:    963.82   0.001509    7.63  0.000489  (-0.020744 -0.007113  0.002792)
 49:    973.39   0.027453  138.74  0.008801  ( 0.088638  0.030621  0.002611)
 50:    993.26   0.000087    0.44  0.000027  (-0.004940 -0.000130 -0.001745)
 51:   1019.07   0.004925   24.89  0.001508  ( 0.028389  0.024933 -0.008969)
 52:   1058.23   0.014963   75.61  0.004412  (-0.005263 -0.055317 -0.036396)
 53:   1070.62   0.016106   81.39  0.004695  ( 0.052191 -0.033756  0.028833)
 54:   1084.24   0.010685   54.00  0.003075  ( 0.033943  0.009853  0.042733)
 55:   1088.61   0.006169   31.17  0.001768  ( 0.021519 -0.021657  0.028918)
 56:   1139.37   0.008556   43.24  0.002343  ( 0.035995 -0.017185  0.027430)
 57:   1171.34   0.000222    1.12  0.000059  ( 0.005663  0.001775 -0.004878)
 58:   1171.86   0.000382    1.93  0.000102  ( 0.003630  0.000120  0.009409)
 59:   1176.43   0.002105   10.64  0.000558  ( 0.018393 -0.010270  0.010702)
 60:   1180.83   0.011511   58.17  0.003042  ( 0.044090  0.021341  0.025354)
 61:   1201.05   0.004989   25.21  0.001296  (-0.030950  0.000840 -0.018378)
 62:   1209.47   0.000430    2.17  0.000111  ( 0.008088  0.005866  0.003327)
 63:   1215.42   0.000333    1.68  0.000086  (-0.000024 -0.009250  0.000127)
 64:   1245.90   0.000949    4.80  0.000238  ( 0.004689  0.002512  0.014471)
 65:   1285.35   0.006389   32.29  0.001551  (-0.025240 -0.023918 -0.018492)
 66:   1300.66   0.091919  464.52  0.022054  (-0.108753  0.006455 -0.100921)
 67:   1308.69   0.000895    4.53  0.000214  (-0.004040 -0.013997  0.001124)
 68:   1318.13   0.076257  385.37  0.018054  ( 0.000285  0.132230  0.023849)
 69:   1326.66   0.064201  324.45  0.015102  (-0.059723  0.097520 -0.044998)
 70:   1351.83   0.009996   50.52  0.002308  ( 0.003641 -0.032391  0.035287)
 71:   1358.07   0.017186   86.85  0.003949  ( 0.017522 -0.059321  0.011098)
 72:   1386.47   0.007178   36.28  0.001616  ( 0.014891 -0.001720  0.037297)
 73:   1464.51   0.014651   74.04  0.003122  (-0.048175 -0.026223 -0.010650)
 74:   1465.51   0.003664   18.52  0.000780  ( 0.022562  0.003733 -0.016038)
 75:   1468.99   0.012000   60.64  0.002549  ( 0.008150  0.049491  0.005774)
 76:   1471.80   0.003078   15.55  0.000653  ( 0.013954 -0.014971  0.015287)
 77:   1473.73   0.002746   13.88  0.000581  (-0.014671 -0.008992  0.016893)
 78:   1478.95   0.070169  354.60  0.014806  ( 0.101238  0.035828 -0.057212)
 79:   1482.99   0.010121   51.15  0.002130  (-0.036358 -0.024650 -0.014153)
 80:   1499.35   0.011759   59.43  0.002447  (-0.015775  0.001045 -0.046878)
 81:   1537.82   0.035734  180.58  0.007251  (-0.049125 -0.028356 -0.063513)
 82:   1649.39   0.007290   36.84  0.001379  ( 0.026820 -0.016975  0.019280)
 83:   1664.19   0.015785   79.77  0.002960  (-0.029739 -0.019310 -0.041263)
 84:   1747.51   0.057606  291.12  0.010287  ( 0.030011 -0.071810  0.065037)
 85:   1794.60   0.092871  469.33  0.016149  ( 0.079907 -0.040914  0.089945)
 86:   2302.07   0.256796  1297.74  0.034811  (-0.185233  0.021177 -0.007143)
 87:   3039.32   0.012519   63.26  0.001285  ( 0.028184 -0.014422  0.016824)
 88:   3076.44   0.004999   25.26  0.000507  ( 0.004008  0.019249  0.010978)
 89:   3111.36   0.007237   36.57  0.000726  (-0.015657 -0.009430  0.019794)
 90:   3117.11   0.000304    1.54  0.000030  ( 0.004640 -0.001861  0.002338)
 91:   3142.37   0.000551    2.78  0.000055  (-0.003338 -0.001582 -0.006405)
 92:   3162.04   0.003073   15.53  0.000303  ( 0.014425  0.003652 -0.009050)
 93:   3167.40   0.003682   18.61  0.000363  ( 0.006806  0.013166  0.011963)
 94:   3190.30   0.000371    1.87  0.000036  (-0.004459  0.003507 -0.002026)
 95:   3196.35   0.001746    8.82  0.000170  ( 0.006099 -0.009451  0.006629)
 96:   3197.80   0.001767    8.93  0.000172  ( 0.005878 -0.011708 -0.000882)
 97:   3215.75   0.002619   13.24  0.000254  ( 0.007706  0.009166  0.010526)
 98:   3232.21   0.000363    1.83  0.000035  ( 0.004315 -0.003257  0.002407)

--------------------------
THERMOCHEMISTRY AT 298.15K
--------------------------

Temperature         ... 298.15 K
Pressure            ... 1.00 atm
Total Mass          ... 292.25 AMU

Throughout the following assumptions are being made:
  (1) The electronic state is orbitally nondegenerate
  (2) There are no thermally accessible electronically excited states
  (3) Hindered rotations indicated by low frequency modes are not
      treated as such but are treated as vibrations and this may
      cause some error
  (4) All equations used are the standard statistical mechanics
      equations for an ideal gas
  (5) All vibrations are strictly harmonic

freq.       4.61  E(vib)   ...       0.59
freq.      22.52  E(vib)   ...       0.56
freq.      37.17  E(vib)   ...       0.54
freq.      55.23  E(vib)   ...       0.52
freq.      68.84  E(vib)   ...       0.50
freq.      92.55  E(vib)   ...       0.47
freq.     102.51  E(vib)   ...       0.46
freq.     116.87  E(vib)   ...       0.44
freq.     140.04  E(vib)   ...       0.41
freq.     149.08  E(vib)   ...       0.40
freq.     156.92  E(vib)   ...       0.40
freq.     174.72  E(vib)   ...       0.38
freq.     187.64  E(vib)   ...       0.36
freq.     220.97  E(vib)   ...       0.33
freq.     247.23  E(vib)   ...       0.31
freq.     254.10  E(vib)   ...       0.30
freq.     295.37  E(vib)   ...       0.27
freq.     310.12  E(vib)   ...       0.26
freq.     332.84  E(vib)   ...       0.24
freq.     347.01  E(vib)   ...       0.23
freq.     388.84  E(vib)   ...       0.20
freq.     455.66  E(vib)   ...       0.16
freq.     463.29  E(vib)   ...       0.16
freq.     492.00  E(vib)   ...       0.14
freq.     512.17  E(vib)   ...       0.14
freq.     550.66  E(vib)   ...       0.12
freq.     560.73  E(vib)   ...       0.11
freq.     569.43  E(vib)   ...       0.11
freq.     585.55  E(vib)   ...       0.11
freq.     605.87  E(vib)   ...       0.10
freq.     647.05  E(vib)   ...       0.09
freq.     681.99  E(vib)   ...       0.08
freq.     714.94  E(vib)   ...       0.07
freq.     743.66  E(vib)   ...       0.06
freq.     762.50  E(vib)   ...       0.06
freq.     772.77  E(vib)   ...       0.05
freq.     783.85  E(vib)   ...       0.05
freq.     821.05  E(vib)   ...       0.05
freq.     847.66  E(vib)   ...       0.04
freq.     874.12  E(vib)   ...       0.04
freq.     896.06  E(vib)   ...       0.03
freq.     930.29  E(vib)   ...       0.03
freq.     963.82  E(vib)   ...       0.03
freq.     973.39  E(vib)   ...       0.03
freq.     993.26  E(vib)   ...       0.02
freq.    1019.07  E(vib)   ...       0.02
freq.    1058.23  E(vib)   ...       0.02
freq.    1070.62  E(vib)   ...       0.02
freq.    1084.24  E(vib)   ...       0.02
freq.    1088.61  E(vib)   ...       0.02
freq.    1139.37  E(vib)   ...       0.01
freq.    1171.34  E(vib)   ...       0.01
freq.    1171.86  E(vib)   ...       0.01
freq.    1176.43  E(vib)   ...       0.01
freq.    1180.83  E(vib)   ...       0.01
freq.    1201.05  E(vib)   ...       0.01
freq.    1209.47  E(vib)   ...       0.01
freq.    1215.42  E(vib)   ...       0.01
freq.    1245.90  E(vib)   ...       0.01
freq.    1285.35  E(vib)   ...       0.01
freq.    1300.66  E(vib)   ...       0.01
freq.    1308.69  E(vib)   ...       0.01
freq.    1318.13  E(vib)   ...       0.01
freq.    1326.66  E(vib)   ...       0.01
freq.    1351.83  E(vib)   ...       0.01
freq.    1358.07  E(vib)   ...       0.01
freq.    1386.47  E(vib)   ...       0.00
freq.    1464.51  E(vib)   ...       0.00
freq.    1465.51  E(vib)   ...       0.00
freq.    1468.99  E(vib)   ...       0.00
freq.    1471.80  E(vib)   ...       0.00
freq.    1473.73  E(vib)   ...       0.00
freq.    1478.95  E(vib)   ...       0.00
freq.    1482.99  E(vib)   ...       0.00
freq.    1499.35  E(vib)   ...       0.00
freq.    1537.82  E(vib)   ...       0.00
freq.    1649.39  E(vib)   ...       0.00
freq.    1664.19  E(vib)   ...       0.00
freq.    1747.51  E(vib)   ...       0.00
freq.    1794.60  E(vib)   ...       0.00
freq.    2302.07  E(vib)   ...       0.00
freq.    3039.32  E(vib)   ...       0.00
freq.    3076.44  E(vib)   ...       0.00
freq.    3111.36  E(vib)   ...       0.00
freq.    3117.11  E(vib)   ...       0.00
freq.    3142.37  E(vib)   ...       0.00
freq.    3162.04  E(vib)   ...       0.00
freq.    3167.40  E(vib)   ...       0.00
freq.    3190.30  E(vib)   ...       0.00
freq.    3196.35  E(vib)   ...       0.00
freq.    3197.80  E(vib)   ...       0.00
freq.    3215.75  E(vib)   ...       0.00
freq.    3232.21  E(vib)   ...       0.00

------------
INNER ENERGY
------------

The inner energy is: U= E(el) + E(ZPE) + E(vib) + E(rot) + E(trans)
    E(el)   - is the total energy from the electronic structure calculation
              = E(kin-el) + E(nuc-el) + E(el-el) + E(nuc-nuc)
    E(ZPE)  - the the zero temperature vibrational energy from the frequency calculation
    E(vib)  - the the finite temperature correction to E(ZPE) due to population
              of excited vibrational states
    E(rot)  - is the rotational thermal energy
    E(trans)- is the translational thermal energy

Summary of contributions to the inner energy U:
Electronic energy                ...  -1058.73042888 Eh
Zero point energy                ...      0.24587140 Eh     154.29 kcal/mol
Thermal vibrational correction   ...      0.01642035 Eh      10.30 kcal/mol
Thermal rotational correction    ...      0.00141627 Eh       0.89 kcal/mol
Thermal translational correction ...      0.00141627 Eh       0.89 kcal/mol
-----------------------------------------------------------------------
Total thermal energy                  -1058.46530458 Eh

Summary of corrections to the electronic energy:
(perhaps to be used in another calculation)
Total thermal correction                  0.01925289 Eh      12.08 kcal/mol
Non-thermal (ZPE) correction              0.24587140 Eh     154.29 kcal/mol
-----------------------------------------------------------------------
Total correction                          0.26512429 Eh     166.37 kcal/mol

--------
ENTHALPY
--------

The enthalpy is H = U + kB*T
                kB is Boltzmann's constant
Total free energy                 ...  -1058.46530458 Eh
Thermal Enthalpy correction       ...      0.00094421 Eh       0.59 kcal/mol
-----------------------------------------------------------------------
Total Enthalpy                    ...  -1058.46436037 Eh

Note: Only C1 symmetry has been detected, increase convergence thresholds
      if your molecule has a higher symmetry. Symmetry factor of 1.0 is
      used for the rotational entropy correction.

Note: Rotational entropy computed according to Herzberg
Infrared and Raman Spectra, Chapter V,1, Van Nostrand Reinhold, 1945

Rotational constants in cm-1:     0.012845     0.009169     0.006190

                             ****ORCA TERMINATED NORMALLY****
TOTAL RUN TIME: 0 days 4 hours 26 minutes 26 seconds 760 msec
