                         Program Version 5.0.4 -  RELEASE  -
|  1> %pal nprocs 24 end
|  2> %maxcore 3500
|  3> ! PBE0 D3BJ def2-TZVP TightSCF OPT FREQ TightOpt
|  4> ! CPCM(dmso)
|  5> %scf
|  6> MaxIter 800
|  7> end
|  8> %geom
|  9> MaxIter 800
| 10> MaxStep 0.2
| 11> end
| 12> *xyz 0 1
| 13> C       -0.344811000      3.800450000     -0.798393000
| 14> C        0.280641000      3.467094000      0.392030000
| 15> C        1.255364000      2.480748000      0.374214000
| 16> N        1.622364000      1.832454000     -0.729675000
| 17> C        1.013770000      2.160774000     -1.868248000
| 18> C        0.030363000      3.134241000     -1.955041000
| 19> H       -1.117175000      4.560718000     -0.823831000
| 20> H        1.760307000      2.189084000      1.290556000
| 21> H        1.323872000      1.614657000     -2.754785000
| 22> H       -0.433321000      3.356273000     -2.908491000
| 23> H        0.016751000      3.953998000      1.322808000
| 24> *
| 25>
| 26>                          ****END OF INPUT****
 Total Charge           Charge          ....    0
 Multiplicity           Mult            ....    1
 Number of Electrons    NEL             ....   42
Dispersion correction           -0.008463641
FINAL SINGLE POINT ENERGY      -248.091963121562
Dispersion correction            ... done
Dispersion correction           -0.008463088
FINAL SINGLE POINT ENERGY      -248.091978118650
Dispersion correction            ... done
Dispersion correction           -0.008462938
FINAL SINGLE POINT ENERGY      -248.091979605792
Dispersion correction            ... done
Dispersion correction           -0.008462882
FINAL SINGLE POINT ENERGY      -248.091980181898
Dispersion correction            ... done
                    ***********************HURRAY********************

CARTESIAN COORDINATES (ANGSTROEM)
---------------------------------
  C     -0.347802    3.798015   -0.798019
  C      0.278266    3.463729    0.392732
  C      1.253157    2.477244    0.373809
  N      1.622273    1.828779   -0.729863
  C      1.012714    2.159096   -1.867369
  C      0.027364    3.131585   -1.954161
  H     -1.114376    4.564112   -0.824535
  H      1.761519    2.195084    1.291624
  H      1.326857    1.619936   -2.756768
  H     -0.432041    3.357060   -2.908916
  H      0.020193    3.955851    1.322611

 Multiplicity           Mult            ....    1
 Number of Electrons    NEL             ....   42
 Basis Dimension        Dim             ....  216

ORBITAL ENERGIES
----------------

  NO   OCC          E(Eh)            E(eV)
   0   2.0000     -14.388017      -391.5179
   1   2.0000     -10.259883      -279.1856
   2   2.0000     -10.259872      -279.1853
   3   2.0000     -10.244085      -278.7557
   4   2.0000     -10.234062      -278.4830
   5   2.0000     -10.234031      -278.4821
   6   2.0000      -0.978374       -26.6229
   7   2.0000      -0.832898       -22.6643
   8   2.0000      -0.789022       -21.4704
   9   2.0000      -0.652849       -17.7649
  10   2.0000      -0.649375       -17.6704
  11   2.0000      -0.547834       -14.9073
  12   2.0000      -0.500825       -13.6281
  13   2.0000      -0.481737       -13.1087
  14   2.0000      -0.442189       -12.0326
  15   2.0000      -0.424051       -11.5390
  16   2.0000      -0.417842       -11.3701
  17   2.0000      -0.375416       -10.2156
  18   2.0000      -0.308517        -8.3952
  19   2.0000      -0.281368        -7.6564
  20   2.0000      -0.280484        -7.6324
  21   0.0000      -0.031303        -0.8518
  22   0.0000      -0.016516        -0.4494
  23   0.0000       0.069074         1.8796
  24   0.0000       0.098118         2.6699
  25   0.0000       0.105139         2.8610

MULLIKEN ATOMIC CHARGES
-----------------------
   0 C :   -0.161558
   1 C :   -0.116826
   2 C :   -0.063203
   3 N :   -0.278757
   4 C :   -0.063154
   5 C :   -0.116981
   6 H :    0.164625
   7 H :    0.154767
   8 H :    0.154806
   9 H :    0.163150
  10 H :    0.163132
Sum of atomic charges:   -0.0000000

LOEWDIN ATOMIC CHARGES
----------------------
   0 C :   -0.117758
   1 C :   -0.149468
   2 C :   -0.217068
   3 N :    0.089174
   4 C :   -0.217110
   5 C :   -0.149452
   6 H :    0.158198
   7 H :    0.144706
   8 H :    0.144706
   9 H :    0.157034
  10 H :    0.157039

  Mayer bond orders larger than 0.100000
B(  0-C ,  1-C ) :   1.4473 B(  0-C ,  5-C ) :   1.4475 B(  0-C ,  6-H ) :   0.9551
B(  1-C ,  2-C ) :   1.4378 B(  1-C , 10-H ) :   0.9471 B(  2-C ,  3-N ) :   1.4829
B(  2-C ,  7-H ) :   0.9559 B(  3-N ,  4-C ) :   1.4831 B(  4-C ,  5-C ) :   1.4376
B(  4-C ,  8-H ) :   0.9559 B(  5-C ,  9-H ) :   0.9471

Dispersion correction           -0.008462904
FINAL SINGLE POINT ENERGY      -248.091980230619

DIPOLE MOMENT
-------------
                                X             Y             Z
Electronic contribution:      0.67997      -0.68038       0.02357
Nuclear contribution   :     -1.55383       1.55424      -0.05383
                        -----------------------------------------
Total Dipole Moment    :     -0.87386       0.87386      -0.03026
                        -----------------------------------------
Magnitude (a.u.)       :      1.23619
Magnitude (Debye)      :      3.14216

Dispersion correction in the Hessian             ... done   (      0.2 sec)

VIBRATIONAL FREQUENCIES
-----------------------

Scaling factor for frequencies =  1.000000000  (already applied!)

   0:         0.00 cm**-1
   1:         0.00 cm**-1
   2:         0.00 cm**-1
   3:         0.00 cm**-1
   4:         0.00 cm**-1
   5:         0.00 cm**-1
   6:       384.45 cm**-1
   7:       415.30 cm**-1
   8:       613.11 cm**-1
   9:       664.31 cm**-1
  10:       719.89 cm**-1
  11:       774.91 cm**-1
  12:       907.20 cm**-1
  13:       974.56 cm**-1
  14:      1020.59 cm**-1
  15:      1021.52 cm**-1
  16:      1036.99 cm**-1
  17:      1057.27 cm**-1
  18:      1086.49 cm**-1
  19:      1096.87 cm**-1
  20:      1161.09 cm**-1
  21:      1238.58 cm**-1
  22:      1315.23 cm**-1
  23:      1382.43 cm**-1
  24:      1476.80 cm**-1
  25:      1521.17 cm**-1
  26:      1640.40 cm**-1
  27:      1651.54 cm**-1
  28:      3170.45 cm**-1
  29:      3173.63 cm**-1
  30:      3199.04 cm**-1
  31:      3214.48 cm**-1
  32:      3220.92 cm**-1

IR SPECTRUM
-----------

 Mode   freq       eps      Int      T**2         TX        TY        TZ
       cm**-1   L/(mol*cm) km/mol    a.u.
----------------------------------------------------------------------------
  6:    384.45   0.000000    0.00  0.000000  (-0.000055 -0.000047 -0.000034)
  7:    415.30   0.001264    6.39  0.000950  (-0.021559 -0.021359  0.005349)
  8:    613.11   0.001378    6.97  0.000702  ( 0.018745 -0.018700  0.000661)
  9:    664.31   0.000076    0.38  0.000036  ( 0.000541  0.000694  0.005912)
 10:    719.89   0.022863  115.54  0.009911  ( 0.069543  0.069024 -0.017615)
 11:    774.91   0.002240   11.32  0.000902  (-0.020942 -0.020857  0.005327)
 12:    907.20   0.000000    0.00  0.000000  (-0.000058  0.000063  0.000098)
 13:    974.56   0.000005    0.03  0.000002  ( 0.000847  0.000831 -0.000432)
 14:   1020.59   0.000032    0.16  0.000010  ( 0.002233 -0.002211  0.000110)
 15:   1021.52   0.003037   15.35  0.000928  ( 0.021540 -0.021527  0.000715)
 16:   1036.99   0.000004    0.02  0.000001  ( 0.000783  0.000706 -0.000418)
 17:   1057.27   0.001273    6.44  0.000376  (-0.013712  0.013699 -0.000443)
 18:   1086.49   0.000078    0.39  0.000022  (-0.000603 -0.000406 -0.004663)
 19:   1096.87   0.002752   13.91  0.000783  (-0.019785  0.019775 -0.000628)
 20:   1161.09   0.000951    4.81  0.000256  (-0.001797 -0.002090 -0.015751)
 21:   1238.58   0.001363    6.89  0.000343  (-0.013089  0.013107 -0.000435)
 22:   1315.23   0.000114    0.57  0.000027  (-0.000474 -0.000755 -0.005117)
 23:   1382.43   0.000083    0.42  0.000019  ( 0.000364  0.000651  0.004266)
 24:   1476.80   0.011559   58.42  0.002443  ( 0.005381  0.006844  0.048650)
 25:   1521.17   0.001163    5.88  0.000239  (-0.010894  0.010948 -0.000249)
 26:   1640.40   0.003389   17.13  0.000645  ( 0.002496  0.003689  0.024998)
 27:   1651.54   0.010817   54.66  0.002044  ( 0.031979 -0.031932  0.001215)
 28:   3170.45   0.007293   36.85  0.000718  (-0.002924 -0.003662 -0.026379)
 29:   3173.63   0.001139    5.75  0.000112  ( 0.007434 -0.007530 -0.000137)
 30:   3199.04   0.000854    4.31  0.000083  ( 0.006446 -0.006458  0.000142)
 31:   3214.48   0.003129   15.81  0.000304  (-0.001882 -0.002432 -0.017156)
 32:   3220.92   0.000562    2.84  0.000054  (-0.005216  0.005218 -0.000147)

--------------------------
THERMOCHEMISTRY AT 298.15K
--------------------------

Temperature         ... 298.15 K
Pressure            ... 1.00 atm
Total Mass          ... 79.10 AMU

Throughout the following assumptions are being made:
  (1) The electronic state is orbitally nondegenerate
  (2) There are no thermally accessible electronically excited states
  (3) Hindered rotations indicated by low frequency modes are not
      treated as such but are treated as vibrations and this may
      cause some error
  (4) All equations used are the standard statistical mechanics
      equations for an ideal gas
  (5) All vibrations are strictly harmonic

freq.     384.45  E(vib)   ...       0.20
freq.     415.30  E(vib)   ...       0.18
freq.     613.11  E(vib)   ...       0.10
freq.     664.31  E(vib)   ...       0.08
freq.     719.89  E(vib)   ...       0.07
freq.     774.91  E(vib)   ...       0.05
freq.     907.20  E(vib)   ...       0.03
freq.     974.56  E(vib)   ...       0.03
freq.    1020.59  E(vib)   ...       0.02
freq.    1021.52  E(vib)   ...       0.02
freq.    1036.99  E(vib)   ...       0.02
freq.    1057.27  E(vib)   ...       0.02
freq.    1086.49  E(vib)   ...       0.02
freq.    1096.87  E(vib)   ...       0.02
freq.    1161.09  E(vib)   ...       0.01
freq.    1238.58  E(vib)   ...       0.01
freq.    1315.23  E(vib)   ...       0.01
freq.    1382.43  E(vib)   ...       0.01
freq.    1476.80  E(vib)   ...       0.00
freq.    1521.17  E(vib)   ...       0.00
freq.    1640.40  E(vib)   ...       0.00
freq.    1651.54  E(vib)   ...       0.00
freq.    3170.45  E(vib)   ...       0.00
freq.    3173.63  E(vib)   ...       0.00
freq.    3199.04  E(vib)   ...       0.00
freq.    3214.48  E(vib)   ...       0.00
freq.    3220.92  E(vib)   ...       0.00

------------
INNER ENERGY
------------

The inner energy is: U= E(el) + E(ZPE) + E(vib) + E(rot) + E(trans)
    E(el)   - is the total energy from the electronic structure calculation
              = E(kin-el) + E(nuc-el) + E(el-el) + E(nuc-nuc)
    E(ZPE)  - the the zero temperature vibrational energy from the frequency calculation
    E(vib)  - the the finite temperature correction to E(ZPE) due to population
              of excited vibrational states
    E(rot)  - is the rotational thermal energy
    E(trans)- is the translational thermal energy

Summary of contributions to the inner energy U:
Electronic energy                ...   -248.09198023 Eh
Zero point energy                ...      0.08916569 Eh      55.95 kcal/mol
Thermal vibrational correction   ...      0.00143303 Eh       0.90 kcal/mol
Thermal rotational correction    ...      0.00141627 Eh       0.89 kcal/mol
Thermal translational correction ...      0.00141627 Eh       0.89 kcal/mol
-----------------------------------------------------------------------
Total thermal energy                   -247.99854897 Eh

Summary of corrections to the electronic energy:
(perhaps to be used in another calculation)
Total thermal correction                  0.00426557 Eh       2.68 kcal/mol
Non-thermal (ZPE) correction              0.08916569 Eh      55.95 kcal/mol
-----------------------------------------------------------------------
Total correction                          0.09343126 Eh      58.63 kcal/mol

--------
ENTHALPY
--------

The enthalpy is H = U + kB*T
                kB is Boltzmann's constant
Total free energy                 ...   -247.99854897 Eh
Thermal Enthalpy correction       ...      0.00094421 Eh       0.59 kcal/mol
-----------------------------------------------------------------------
Total Enthalpy                    ...   -247.99760476 Eh

Note: Only C1 symmetry has been detected, increase convergence thresholds
      if your molecule has a higher symmetry. Symmetry factor of 1.0 is
      used for the rotational entropy correction.

Note: Rotational entropy computed according to Herzberg
Infrared and Raman Spectra, Chapter V,1, Van Nostrand Reinhold, 1945
Point Group:  C1, Symmetry Number:   1
Rotational constants in cm-1:     0.202936     0.196163     0.099746

Vibrational entropy computed according to the QRRHO of S. Grimme
Chem.Eur.J. 2012 18 9955

-------
ENTROPY
-------

The entropy contributions are T*S = T*(S(el)+S(vib)+S(rot)+S(trans))
     S(el)   - electronic entropy
     S(vib)  - vibrational entropy
     S(rot)  - rotational entropy
     S(trans)- translational entropy
The entropies will be listed as multiplied by the temperature to get
units of energy

Electronic entropy                ...      0.00000000 Eh      0.00 kcal/mol
Vibrational entropy               ...      0.00194170 Eh      1.22 kcal/mol
Rotational entropy                ...      0.01212091 Eh      7.61 kcal/mol
Translational entropy             ...      0.01853922 Eh     11.63 kcal/mol
-----------------------------------------------------------------------
Final entropy term                ...      0.03260183 Eh     20.46 kcal/mol

In case the symmetry of your molecule has not been determined correctly
or in case you have a reason to use a different symmetry number we print
out the resulting rotational entropy values for sn=1,12 :
 --------------------------------------------------------
|  sn= 1 | S(rot)=       0.01212091 Eh      7.61 kcal/mol|
|  sn= 2 | S(rot)=       0.01146645 Eh      7.20 kcal/mol|
|  sn= 3 | S(rot)=       0.01108362 Eh      6.96 kcal/mol|
|  sn= 4 | S(rot)=       0.01081199 Eh      6.78 kcal/mol|
|  sn= 5 | S(rot)=       0.01060130 Eh      6.65 kcal/mol|
|  sn= 6 | S(rot)=       0.01042916 Eh      6.54 kcal/mol|
|  sn= 7 | S(rot)=       0.01028361 Eh      6.45 kcal/mol|
|  sn= 8 | S(rot)=       0.01015754 Eh      6.37 kcal/mol|
|  sn= 9 | S(rot)=       0.01004633 Eh      6.30 kcal/mol|
|  sn=10 | S(rot)=       0.00994685 Eh      6.24 kcal/mol|
|  sn=11 | S(rot)=       0.00985686 Eh      6.19 kcal/mol|
|  sn=12 | S(rot)=       0.00977470 Eh      6.13 kcal/mol|
 --------------------------------------------------------

-------------------
GIBBS FREE ENERGY
-------------------

The Gibbs free energy is G = H - T*S

Total enthalpy                    ...   -247.99760476 Eh
Total entropy correction          ...     -0.03260183 Eh    -20.46 kcal/mol
-----------------------------------------------------------------------
Final Gibbs free energy         ...   -248.03020659 Eh

For completeness - the Gibbs free energy minus the electronic energy
G-E(el)                           ...      0.06177364 Eh     38.76 kcal/mol

                             ****ORCA TERMINATED NORMALLY****
TOTAL RUN TIME: 0 days 0 hours 2 minutes 35 seconds 999 msec
