                         Program Version 5.0.4 -  RELEASE  -
|  1> %pal nprocs 24 end
|  2> %maxcore 3500
|  3> ! PBE0 D3BJ def2-TZVP TightSCF OPTTS FREQ TightOpt
|  4> ! CPCM(dmso)
|  5> %scf
|  6> MaxIter 800
|  7> end
|  8>
|  9> %geom
| 10> MaxIter 800
| 11> MaxStep 0.2
| 12> end
| 13>
| 14> *xyz 0 1
| 15> C      -2.95920800      2.99353600     -0.11614500
| 16> C      -2.15200700      2.84073600      0.99923200
| 17> C      -0.96580500      2.14217400      0.86928700
| 18> N      -0.58650300      1.62589100     -0.29451400
| 19> C      -1.34828400      1.77337700     -1.37349500
| 20> C      -2.54993900      2.45272500     -1.32575900
| 21> C       1.06129100      0.49514200     -0.55184900
| 22> C       1.91205800      1.54584000      0.07854800
| 23> O       2.18455800      1.56236200      1.25430000
| 24> O       2.30003900      2.44811200     -0.80517500
| 25> C       3.12828200      3.50175100     -0.30175000
| 26> H      -3.89839700      3.52897100     -0.04446700
| 27> H      -0.30139000      1.98990700      1.71210200
| 28> H      -0.98712500      1.32513900     -2.29276200
| 29> H      -3.14953400      2.54914300     -2.22142100
| 30> H       0.85359600      0.55619300     -1.60648100
| 31> H       4.05115100      3.09081700      0.10780500
| 32> H       2.59907800      4.06053700      0.47023500
| 33> C       1.66481500     -1.64904800      0.46250800
| 34> C       0.55274200     -0.65937700      0.28770200
| 35> C      -0.68142400     -1.29096400     -0.31484500
| 36> C      -0.62925000     -1.87760400     -1.57000500
| 37> C      -1.75802000     -2.42873200     -2.15825200
| 38> C      -2.96038400     -2.39574600     -1.46979600
| 39> C      -3.03652600     -1.82738400     -0.20624800
| 40> C      -1.89801100     -1.27918900      0.37852200
| 41> O      -1.88837500     -0.71472400      1.60508900
| 42> C      -3.11808300     -0.57251000      2.28869600
| 43> N       2.73984500     -1.44430200     -0.27320500
| 44> O       3.75897000     -2.15655000     -0.29814600
| 45> H       0.30078500     -0.26289300      1.27196700
| 46> H       0.31788300     -1.89597600     -2.10026100
| 47> H      -1.69742900     -2.87738000     -3.14232600
| 48> H      -3.85488900     -2.81893100     -1.91273000
| 49> H      -3.98242700     -1.81530800      0.31804900
| 50> H      -3.56185600     -1.54628700      2.51358000
| 51> H      -3.82454100      0.02505000      1.70540800
| 52> H      -2.88633800     -0.05594900      3.21781400
| 53> O       2.70831600     -0.38197100     -1.04412900
| 54> H       3.34125600      4.13942000     -1.15530400
| 55> H      -2.43216900      3.24847000      1.96168400
| 56> C       1.58095500     -2.74832600      1.32314900
| 57> C       1.44769500     -3.67902600      2.08014800
| 58> H       1.34094300     -4.50405400      2.74817900
| 59> *
| 60>
| 61>                          ****END OF INPUT****
 Total Charge           Charge          ....    0
 Multiplicity           Mult            ....    1
 Number of Electrons    NEL             ....  186
Dispersion correction           -0.057331443
FINAL SINGLE POINT ENERGY     -1219.397292955397
Dispersion correction            ... done
Dispersion correction           -0.057325757
FINAL SINGLE POINT ENERGY     -1219.396875222719
Dispersion correction            ... done
Dispersion correction           -0.057688437
FINAL SINGLE POINT ENERGY     -1219.395546057744
Dispersion correction            ... done
FINAL SINGLE POINT ENERGY     -1219.394556815307
FINAL SINGLE POINT ENERGY     -1219.393723638598
FINAL SINGLE POINT ENERGY     -1219.393127415878
FINAL SINGLE POINT ENERGY     -1219.394778045820
FINAL SINGLE POINT ENERGY     -1219.396253841157
FINAL SINGLE POINT ENERGY     -1219.397180744064
FINAL SINGLE POINT ENERGY     -1219.397284074341
FINAL SINGLE POINT ENERGY     -1219.397291936094
FINAL SINGLE POINT ENERGY     -1219.397293972285
FINAL SINGLE POINT ENERGY     -1219.397294948643
FINAL SINGLE POINT ENERGY     -1219.397295604984
FINAL SINGLE POINT ENERGY     -1219.397296120864
Dispersion correction           -0.057346025
FINAL SINGLE POINT ENERGY     -1219.397296490404
Dispersion correction            ... done
Dispersion correction           -0.057345694
FINAL SINGLE POINT ENERGY     -1219.397296794396
Dispersion correction            ... done
                    ***********************HURRAY********************

CARTESIAN COORDINATES (ANGSTROEM)
---------------------------------
  C     -2.974208    2.972880   -0.128020
  C     -2.181949    2.804399    0.996088
  C     -0.986541    2.120400    0.868945
  N     -0.585908    1.632227   -0.299980
  C     -1.332903    1.794789   -1.387667
  C     -2.541741    2.462041   -1.343059
  C      1.069963    0.499041   -0.547415
  C      1.919974    1.554880    0.075928
  O      2.185514    1.586494    1.252862
  O      2.315959    2.443849   -0.818278
  C      3.142921    3.503922   -0.326945
  H     -3.919872    3.497350   -0.059380
  H     -0.332735    1.955772    1.717763
  H     -0.954181    1.368376   -2.310261
  H     -3.129457    2.571691   -2.245145
  H      0.867112    0.553904   -1.603525
  H      4.067169    3.098710    0.085225
  H      2.613866    4.069616    0.440062
  C      1.665102   -1.646869    0.473679
  C      0.557902   -0.651241    0.295032
  C     -0.678321   -1.280768   -0.307871
  C     -0.629176   -1.857854   -1.567982
  C     -1.758663   -2.407072   -2.157005
  C     -2.959284   -2.382026   -1.464629
  C     -3.032416   -1.823805   -0.196107
  C     -1.893006   -1.278106    0.389945
  O     -1.880551   -0.725447    1.622185
  C     -3.108927   -0.585601    2.308813
  N      2.744389   -1.450257   -0.258891
  O      3.756461   -2.173175   -0.281591
  H      0.306222   -0.251117    1.278084
  H      0.316238   -1.870298   -2.101632
  H     -1.700248   -2.847723   -3.144833
  H     -3.854338   -2.803543   -1.908057
  H     -3.976615   -1.818058    0.331607
  H     -3.554732   -1.559998    2.527008
  H     -3.814645    0.018233    1.730988
  H     -2.874365   -0.076770    3.241516
  O      2.726734   -0.387714   -1.029365
  H      3.353263    4.133137   -1.187415
  H     -2.480654    3.187947    1.962958
  C      1.564416   -2.749454    1.328376
  C      1.411244   -3.681656    2.079747
  H      1.287330   -4.508042    2.743179

 Multiplicity           Mult            ....    1
 Number of Electrons    NEL             ....  186
 Basis Dimension        Dim             ....  914

ORBITAL ENERGIES
----------------

  NO   OCC          E(Eh)            E(eV)
   0   2.0000     -19.267942      -524.3074
   1   2.0000     -19.246415      -523.7216
   2   2.0000     -19.226655      -523.1839
   3   2.0000     -19.208790      -522.6977
   4   2.0000     -19.198683      -522.4227
   5   2.0000     -14.578142      -396.6914
   6   2.0000     -14.442555      -393.0019
   7   2.0000     -10.369727      -282.1746
   8   2.0000     -10.330531      -281.1080
   9   2.0000     -10.292537      -280.0742
  10   2.0000     -10.285456      -279.8815
  11   2.0000     -10.285115      -279.8722
  12   2.0000     -10.276427      -279.6358
  13   2.0000     -10.272268      -279.5226
  14   2.0000     -10.267089      -279.3817
  15   2.0000     -10.266943      -279.3777
  16   2.0000     -10.260319      -279.1975
  17   2.0000     -10.250851      -278.9398
  18   2.0000     -10.250674      -278.9350
  19   2.0000     -10.241125      -278.6752
  20   2.0000     -10.240399      -278.6554
  21   2.0000     -10.231439      -278.4116
  22   2.0000     -10.230648      -278.3901
  23   2.0000     -10.228748      -278.3384
  24   2.0000     -10.227076      -278.2929
  25   2.0000     -10.222930      -278.1801
  26   2.0000      -1.215811       -33.0839
  27   2.0000      -1.159102       -31.5408
  28   2.0000      -1.109561       -30.1927
  29   2.0000      -1.067358       -29.0443
  30   2.0000      -1.040223       -28.3059
  31   2.0000      -1.018949       -27.7270
  32   2.0000      -0.909143       -24.7390
  33   2.0000      -0.882147       -24.0044
  34   2.0000      -0.858438       -23.3593
  35   2.0000      -0.833964       -22.6933
  36   2.0000      -0.815593       -22.1934
  37   2.0000      -0.795914       -21.6579
  38   2.0000      -0.780955       -21.2509
  39   2.0000      -0.778653       -21.1882
  40   2.0000      -0.754508       -20.5312
  41   2.0000      -0.720401       -19.6031
  42   2.0000      -0.695953       -18.9378
  43   2.0000      -0.681537       -18.5456
  44   2.0000      -0.668525       -18.1915
  45   2.0000      -0.648741       -17.6531
  46   2.0000      -0.626235       -17.0407
  47   2.0000      -0.615066       -16.7368
  48   2.0000      -0.594195       -16.1689
  49   2.0000      -0.585929       -15.9439
  50   2.0000      -0.570403       -15.5215
  51   2.0000      -0.558390       -15.1946
  52   2.0000      -0.546850       -14.8806
  53   2.0000      -0.533326       -14.5125
  54   2.0000      -0.529522       -14.4090
  55   2.0000      -0.526777       -14.3343
  56   2.0000      -0.517508       -14.0821
  57   2.0000      -0.515102       -14.0166
  58   2.0000      -0.511919       -13.9300
  59   2.0000      -0.502674       -13.6785
  60   2.0000      -0.498613       -13.5680
  61   2.0000      -0.493293       -13.4232
  62   2.0000      -0.492349       -13.3975
  63   2.0000      -0.473630       -12.8881
  64   2.0000      -0.465978       -12.6799
  65   2.0000      -0.460857       -12.5406
  66   2.0000      -0.453565       -12.3421
  67   2.0000      -0.451821       -12.2947
  68   2.0000      -0.438891       -11.9428
  69   2.0000      -0.434793       -11.8313
  70   2.0000      -0.428142       -11.6503
  71   2.0000      -0.418585       -11.3903
  72   2.0000      -0.415840       -11.3156
  73   2.0000      -0.397970       -10.8293
  74   2.0000      -0.396727       -10.7955
  75   2.0000      -0.387235       -10.5372
  76   2.0000      -0.383434       -10.4338
  77   2.0000      -0.372010       -10.1229
  78   2.0000      -0.362585        -9.8664
  79   2.0000      -0.349136        -9.5005
  80   2.0000      -0.345797        -9.4096
  81   2.0000      -0.336571        -9.1586
  82   2.0000      -0.333684        -9.0800
  83   2.0000      -0.328896        -8.9497
  84   2.0000      -0.325797        -8.8654
  85   2.0000      -0.315991        -8.5986
  86   2.0000      -0.308938        -8.4066
  87   2.0000      -0.305613        -8.3162
  88   2.0000      -0.299358        -8.1459
  89   2.0000      -0.281669        -7.6646
  90   2.0000      -0.272343        -7.4108
  91   2.0000      -0.242324        -6.5940
  92   2.0000      -0.221734        -6.0337
  93   0.0000      -0.056313        -1.5323
  94   0.0000      -0.046648        -1.2694
  95   0.0000      -0.034748        -0.9455
  96   0.0000      -0.030595        -0.8325
  97   0.0000      -0.015174        -0.4129

MULLIKEN ATOMIC CHARGES
-----------------------
   0 C :   -0.106326
   1 C :   -0.142401
   2 C :   -0.010903
   3 N :   -0.117108
   4 C :   -0.017221
   5 C :   -0.153449
   6 C :    0.043955
   7 C :    0.325079
   8 O :   -0.388110
   9 O :   -0.216296
  10 C :   -0.266730
  11 H :    0.176156
  12 H :    0.181619
  13 H :    0.174763
  14 H :    0.177038
  15 H :    0.183068
  16 H :    0.157296
  17 H :    0.156066
  18 C :   -0.177953
  19 C :    0.110349
  20 C :   -0.063331
  21 C :   -0.158818
  22 C :   -0.202760
  23 C :   -0.135973
  24 C :   -0.306282
  25 C :    0.274038
  26 O :   -0.265995
  27 C :   -0.280961
  28 N :    0.441147
  29 O :   -0.497174
  30 H :    0.130498
  31 H :    0.158869
  32 H :    0.146563
  33 H :    0.152748
  34 H :    0.163976
  35 H :    0.158704
  36 H :    0.152556
  37 H :    0.160405
  38 O :   -0.426770
  39 H :    0.165720
  40 H :    0.175176
  41 C :   -0.025948
  42 C :   -0.225685
  43 H :    0.220407
Sum of atomic charges:    0.0000000

LOEWDIN ATOMIC CHARGES
----------------------
   0 C :   -0.086758
   1 C :   -0.120205
   2 C :   -0.157680
   3 N :    0.260340
   4 C :   -0.155298
   5 C :   -0.121358
   6 C :   -0.062241
   7 C :   -0.524889
   8 O :    0.094770
   9 O :    0.276859
  10 C :   -0.297921
  11 H :    0.165169
  12 H :    0.159827
  13 H :    0.160859
  14 H :    0.165166
  15 H :    0.167571
  16 H :    0.120737
  17 H :    0.120179
  18 C :   -0.224280
  19 C :   -0.162832
  20 C :   -0.103604
  21 C :   -0.104160
  22 C :   -0.163315
  23 C :   -0.143892
  24 C :   -0.137430
  25 C :   -0.234001
  26 O :    0.254064
  27 C :   -0.328153
  28 N :    0.002942
  29 O :   -0.182760
  30 H :    0.188607
  31 H :    0.163505
  32 H :    0.152472
  33 H :    0.154868
  34 H :    0.160677
  35 H :    0.118263
  36 H :    0.117405
  37 H :    0.122398
  38 O :   -0.041556
  39 H :    0.123417
  40 H :    0.165467
  41 C :   -0.115041
  42 C :   -0.089632
  43 H :    0.141442

  Mayer bond orders larger than 0.100000
B(  0-C ,  1-C ) :   1.4238 B(  0-C ,  5-C ) :   1.4111 B(  0-C , 11-H ) :   0.9474
B(  1-C ,  2-C ) :   1.4370 B(  1-C , 40-H ) :   0.9521 B(  2-C ,  3-N ) :   1.3215
B(  2-C , 12-H ) :   0.9318 B(  3-N ,  4-C ) :   1.3573 B(  3-N ,  6-C ) :   0.3308
B(  4-C ,  5-C ) :   1.4387 B(  4-C , 13-H ) :   0.9381 B(  5-C , 14-H ) :   0.9525
B(  6-C ,  7-C ) :   0.9614 B(  6-C , 15-H ) :   0.9338 B(  6-C , 19-C ) :   1.0661
B(  6-C , 38-O ) :   0.3430 B(  7-C ,  8-O ) :   1.9831 B(  7-C ,  9-O ) :   1.2852
B(  7-C , 38-O ) :   0.1004 B(  9-O , 10-C ) :   0.8848 B( 10-C , 16-H ) :   0.9673
B( 10-C , 17-H ) :   0.9659 B( 10-C , 39-H ) :   0.9640 B( 18-C , 19-C ) :   1.0245
B( 18-C , 28-N ) :   1.5190 B( 18-C , 41-C ) :   1.3478 B( 18-C , 42-C ) :  -0.1219
B( 19-C , 20-C ) :   0.7959 B( 19-C , 30-H ) :   0.9221 B( 20-C , 21-C ) :   1.3516
B( 20-C , 25-C ) :   1.2904 B( 21-C , 22-C ) :   1.3998 B( 21-C , 31-H ) :   0.9788
B( 22-C , 23-C ) :   1.3957 B( 22-C , 32-H ) :   0.9826 B( 23-C , 24-C ) :   1.3953
B( 23-C , 33-H ) :   0.9660 B( 24-C , 25-C ) :   1.3829 B( 24-C , 34-H ) :   0.9617
B( 25-C , 26-O ) :   1.1051 B( 26-O , 27-C ) :   0.9355 B( 27-C , 35-H ) :   0.9575
B( 27-C , 36-H ) :   0.9645 B( 27-C , 37-H ) :   0.9654 B( 28-N , 29-O ) :   1.4492
B( 28-N , 38-O ) :   1.0919 B( 29-O , 41-C ) :   0.1345 B( 41-C , 42-C ) :   2.6283
B( 42-C , 43-H ) :   0.9734

Dispersion correction           -0.057344616
FINAL SINGLE POINT ENERGY     -1219.397297009268

DIPOLE MOMENT
-------------
                                X             Y             Z
Electronic contribution:     10.44009      -4.47673      -1.63640
Nuclear contribution   :    -16.76858       8.59317       1.49557
                        -----------------------------------------
Total Dipole Moment    :     -6.32850       4.11644      -0.14083
                        -----------------------------------------
Magnitude (a.u.)       :      7.55081
Magnitude (Debye)      :     19.19264

Dispersion correction in the Hessian             ... done   (      0.6 sec)

VIBRATIONAL FREQUENCIES
-----------------------

Scaling factor for frequencies =  1.000000000  (already applied!)

   0:         0.00 cm**-1
   1:         0.00 cm**-1
   2:         0.00 cm**-1
   3:         0.00 cm**-1
   4:         0.00 cm**-1
   5:         0.00 cm**-1
   6:      -543.71 cm**-1 ***imaginary mode***
   7:        19.46 cm**-1
   8:        33.36 cm**-1
   9:        39.22 cm**-1
  10:        54.06 cm**-1
  11:        58.41 cm**-1
  12:        63.54 cm**-1
  13:        72.06 cm**-1
  14:        78.10 cm**-1
  15:        98.82 cm**-1
  16:       103.48 cm**-1
  17:       122.01 cm**-1
  18:       145.10 cm**-1
  19:       152.87 cm**-1
  20:       156.96 cm**-1
  21:       167.58 cm**-1
  22:       181.82 cm**-1
  23:       192.57 cm**-1
  24:       212.47 cm**-1
  25:       234.39 cm**-1
  26:       244.66 cm**-1
  27:       264.23 cm**-1
  28:       269.76 cm**-1
  29:       289.60 cm**-1
  30:       316.58 cm**-1
  31:       329.81 cm**-1
  32:       372.13 cm**-1
  33:       398.14 cm**-1
  34:       444.82 cm**-1
  35:       450.90 cm**-1
  36:       484.19 cm**-1
  37:       490.00 cm**-1
  38:       513.10 cm**-1
  39:       557.52 cm**-1
  40:       584.38 cm**-1
  41:       587.79 cm**-1
  42:       597.43 cm**-1
  43:       612.47 cm**-1
  44:       627.61 cm**-1
  45:       636.79 cm**-1
  46:       659.74 cm**-1
  47:       702.24 cm**-1
  48:       713.17 cm**-1
  49:       725.86 cm**-1
  50:       734.46 cm**-1
  51:       740.17 cm**-1
  52:       767.58 cm**-1
  53:       771.09 cm**-1
  54:       777.90 cm**-1
  55:       779.16 cm**-1
  56:       808.95 cm**-1
  57:       838.33 cm**-1
  58:       873.55 cm**-1
  59:       888.91 cm**-1
  60:       894.81 cm**-1
  61:       962.90 cm**-1
  62:       969.39 cm**-1
  63:       981.22 cm**-1
  64:       994.49 cm**-1
  65:      1016.39 cm**-1
  66:      1032.48 cm**-1
  67:      1042.11 cm**-1
  68:      1044.16 cm**-1
  69:      1060.01 cm**-1
  70:      1071.09 cm**-1
  71:      1083.95 cm**-1
  72:      1094.85 cm**-1
  73:      1109.23 cm**-1
  74:      1111.95 cm**-1
  75:      1129.79 cm**-1
  76:      1142.82 cm**-1
  77:      1168.06 cm**-1
  78:      1170.93 cm**-1
  79:      1172.02 cm**-1
  80:      1175.05 cm**-1
  81:      1193.61 cm**-1
  82:      1198.45 cm**-1
  83:      1213.72 cm**-1
  84:      1221.65 cm**-1
  85:      1235.37 cm**-1
  86:      1236.25 cm**-1
  87:      1267.21 cm**-1
  88:      1289.43 cm**-1
  89:      1301.81 cm**-1
  90:      1313.24 cm**-1
  91:      1325.09 cm**-1
  92:      1341.83 cm**-1
  93:      1379.99 cm**-1
  94:      1385.86 cm**-1
  95:      1395.70 cm**-1
  96:      1430.05 cm**-1
  97:      1465.29 cm**-1
  98:      1466.16 cm**-1
  99:      1472.36 cm**-1
 100:      1473.67 cm**-1
 101:      1481.11 cm**-1
 102:      1482.63 cm**-1
 103:      1493.40 cm**-1
 104:      1498.29 cm**-1
 105:      1527.96 cm**-1
 106:      1538.51 cm**-1
 107:      1587.88 cm**-1
 108:      1648.48 cm**-1
 109:      1649.97 cm**-1
 110:      1664.45 cm**-1
 111:      1665.56 cm**-1
 112:      1784.57 cm**-1
 113:      2197.39 cm**-1
 114:      3036.86 cm**-1
 115:      3073.43 cm**-1
 116:      3108.69 cm**-1
 117:      3110.20 cm**-1
 118:      3157.70 cm**-1
 119:      3165.37 cm**-1
 120:      3180.33 cm**-1
 121:      3192.54 cm**-1
 122:      3196.00 cm**-1
 123:      3202.30 cm**-1
 124:      3206.60 cm**-1
 125:      3213.18 cm**-1
 126:      3214.47 cm**-1
 127:      3230.51 cm**-1
 128:      3230.74 cm**-1
 129:      3234.69 cm**-1
 130:      3278.25 cm**-1
 131:      3449.48 cm**-1

IR SPECTRUM
-----------

 Mode   freq       eps      Int      T**2         TX        TY        TZ
       cm**-1   L/(mol*cm) km/mol    a.u.
----------------------------------------------------------------------------
  7:     19.46   0.000155    0.78  0.002488  ( 0.010251  0.019836  0.044600)
  8:     33.36   0.000035    0.18  0.000330  ( 0.010587 -0.013479 -0.006051)
  9:     39.22   0.000135    0.68  0.001075  (-0.015028 -0.029099  0.001659)
 10:     54.06   0.000654    3.31  0.003778  ( 0.044476 -0.026699  0.032964)
 11:     58.41   0.000394    1.99  0.002103  ( 0.005246 -0.036988 -0.026602)
 12:     63.54   0.000153    0.77  0.000751  (-0.007190  0.026199 -0.003659)
 13:     72.06   0.001078    5.45  0.004666  ( 0.030220 -0.052083 -0.032254)
 14:     78.10   0.000755    3.82  0.003017  (-0.014060 -0.038690 -0.036365)
 15:     98.82   0.000655    3.31  0.002070  ( 0.017127  0.041947  0.004106)
 16:    103.48   0.001231    6.22  0.003713  ( 0.011279 -0.047639  0.036287)
 17:    122.01   0.000223    1.12  0.000569  (-0.012546  0.001976  0.020200)
 18:    145.10   0.000438    2.21  0.000942  ( 0.029604 -0.001198 -0.008001)
 19:    152.87   0.000463    2.34  0.000945  (-0.008203 -0.026950  0.012304)
 20:    156.96   0.001337    6.75  0.002657  ( 0.022993 -0.045988  0.003724)
 21:    167.58   0.002570   12.99  0.004786  (-0.039095  0.056531 -0.007876)
 22:    181.82   0.001215    6.14  0.002086  (-0.027660  0.027881  0.023317)
 23:    192.57   0.004069   20.56  0.006594  ( 0.067965 -0.043333  0.009842)
 24:    212.47   0.000166    0.84  0.000244  (-0.014959  0.003063 -0.003334)
 25:    234.39   0.001648    8.33  0.002195  (-0.013560  0.044614  0.004508)
 26:    244.66   0.000209    1.06  0.000267  ( 0.012853 -0.009289  0.003943)
 27:    264.23   0.001562    7.90  0.001845  (-0.008788 -0.038579  0.016722)
 28:    269.76   0.000943    4.77  0.001091  (-0.013384 -0.028668 -0.009501)
 29:    289.60   0.004616   23.33  0.004975  ( 0.043882  0.024796 -0.049336)
 30:    316.58   0.000613    3.10  0.000604  (-0.020640 -0.012364 -0.005012)
 31:    329.81   0.000940    4.75  0.000890  ( 0.023906  0.014623 -0.010211)
 32:    372.13   0.005042   25.48  0.004228  (-0.015395  0.063116 -0.002676)
 33:    398.14   0.000004    0.02  0.000003  (-0.000794  0.001123 -0.001046)
 34:    444.82   0.002297   11.61  0.001612  ( 0.034524  0.019165 -0.007240)
 35:    450.90   0.000117    0.59  0.000081  (-0.003823  0.007945 -0.001798)
 36:    484.19   0.003433   17.35  0.002212  (-0.044281  0.001475 -0.015795)
 37:    490.00   0.000415    2.10  0.000264  (-0.000159  0.016223 -0.000911)
 38:    513.10   0.001373    6.94  0.000835  (-0.007503 -0.020521 -0.018906)
 39:    557.52   0.002420   12.23  0.001355  (-0.012774  0.033771 -0.007137)
 40:    584.38   0.009375   47.38  0.005006  ( 0.023713  0.040332  0.053078)
 41:    587.79   0.012376   62.55  0.006571  (-0.033610 -0.044756 -0.058635)
 42:    597.43   0.000692    3.50  0.000361  ( 0.014907 -0.011787 -0.000501)
 43:    612.47   0.004442   22.45  0.002263  ( 0.040889 -0.020517  0.013062)
 44:    627.61   0.007123   36.00  0.003542  (-0.007580  0.056767 -0.016184)
 45:    636.79   0.002272   11.48  0.001113  ( 0.023885 -0.022571  0.005788)
 46:    659.74   0.000174    0.88  0.000082  (-0.005927  0.006677 -0.001593)
 47:    702.24   0.007230   36.54  0.003213  ( 0.024948 -0.047329  0.018719)
 48:    713.17   0.021563  108.97  0.009435  (-0.041707 -0.085166  0.021041)
 49:    725.86   0.010869   54.93  0.004673  ( 0.063154 -0.017087 -0.019810)
 50:    734.46   0.002776   14.03  0.001179  ( 0.029637  0.013019  0.011470)
 51:    740.17   0.006167   31.16  0.002600  (-0.016596 -0.044120 -0.019441)
 52:    767.58   0.015070   76.16  0.006127  (-0.039456  0.060322 -0.030513)
 53:    771.09   0.004966   25.10  0.002010  ( 0.018101  0.025772 -0.031908)
 54:    777.90   0.010000   50.53  0.004012  (-0.000134 -0.062162  0.012137)
 55:    779.16   0.005957   30.10  0.002386  ( 0.013566 -0.046569  0.005753)
 56:    808.95   0.005286   26.71  0.002039  (-0.012347 -0.009389 -0.042410)
 57:    838.33   0.001350    6.82  0.000503  (-0.005124 -0.016790  0.013948)
 58:    873.55   0.002590   13.09  0.000925  (-0.003068 -0.029114  0.008266)
 59:    888.91   0.005919   29.91  0.002078  (-0.025312 -0.036568  0.010004)
 60:    894.81   0.000033    0.17  0.000011  ( 0.001327  0.002015 -0.002360)
 61:    962.90   0.000902    4.56  0.000292  (-0.007739  0.004277 -0.014628)
 62:    969.39   0.001653    8.35  0.000532  (-0.007192 -0.020471 -0.007826)
 63:    981.22   0.000349    1.76  0.000111  (-0.006416 -0.008147  0.001862)
 64:    994.49   0.000057    0.29  0.000018  (-0.000461 -0.004198 -0.000422)
 65:   1016.39   0.000055    0.28  0.000017  ( 0.000602 -0.002106  0.003477)
 66:   1032.48   0.009063   45.80  0.002739  ( 0.043797 -0.011758  0.026133)
 67:   1042.11   0.000037    0.18  0.000011  (-0.000269 -0.003104 -0.001113)
 68:   1044.16   0.010894   55.05  0.003256  (-0.007822  0.055503  0.010676)
 69:   1060.01   0.000205    1.03  0.000060  (-0.001986  0.003165  0.006803)
 70:   1071.09   0.008624   43.58  0.002513  (-0.048104 -0.008561  0.011203)
 71:   1083.95   0.009765   49.35  0.002811  ( 0.025199 -0.003395 -0.046528)
 72:   1094.85   0.012692   64.14  0.003618  ( 0.032935 -0.049063  0.011210)
 73:   1109.23   0.000846    4.28  0.000238  ( 0.006639  0.011860  0.007303)
 74:   1111.95   0.005146   26.00  0.001444  (-0.015174 -0.013539  0.032103)
 75:   1129.79   0.045870  231.81  0.012670  ( 0.018661  0.098869 -0.050465)
 76:   1142.82   0.057342  289.79  0.015658  (-0.067676 -0.058707  0.087359)
 77:   1168.06   0.000723    3.65  0.000193  ( 0.003940  0.004507  0.012541)
 78:   1170.93   0.000220    1.11  0.000059  (-0.003869  0.005933 -0.002918)
 79:   1172.02   0.000397    2.01  0.000106  (-0.008632  0.005229  0.001977)
 80:   1175.05   0.002349   11.87  0.000624  (-0.019284 -0.003057  0.015573)
 81:   1193.61   0.005365   27.11  0.001403  ( 0.021874  0.025377 -0.016741)
 82:   1198.45   0.016710   84.45  0.004351  (-0.032452 -0.057217  0.004930)
 83:   1213.72   0.001383    6.99  0.000356  ( 0.017248 -0.006371 -0.004185)
 84:   1221.65   0.013925   70.37  0.003557  (-0.034266 -0.048387  0.006450)
 85:   1235.37   0.022394  113.17  0.005657  ( 0.031734  0.058009 -0.035844)
 86:   1236.25   0.005055   25.55  0.001276  ( 0.031224 -0.015920 -0.006910)
 87:   1267.21   0.017292   87.39  0.004258  ( 0.060373 -0.003276 -0.024552)
 88:   1289.43   0.086312  436.19  0.020889  (-0.019178 -0.137352  0.040688)
 89:   1301.81   0.064076  323.81  0.015360  ( 0.043136 -0.023379 -0.113810)
 90:   1313.24   0.044214  223.44  0.010507  ( 0.060264 -0.082501 -0.008274)
 91:   1325.09   0.009296   46.98  0.002189  (-0.044007  0.004144 -0.015345)
 92:   1341.83   0.001738    8.78  0.000404  (-0.004960  0.003611  0.019146)
 93:   1379.99   0.016474   83.25  0.003725  (-0.052590 -0.007965  0.029935)
 94:   1385.86   0.002492   12.59  0.000561  ( 0.015210 -0.006581  0.016927)
 95:   1395.70   0.054389  274.86  0.012161  ( 0.102203 -0.034238 -0.023306)
 96:   1430.05   0.005680   28.70  0.001239  ( 0.009843  0.033791  0.000825)
 97:   1465.29   0.003583   18.11  0.000763  ( 0.021498 -0.016693 -0.004722)
 98:   1466.16   0.005832   29.47  0.001241  (-0.004686 -0.015217 -0.031430)
 99:   1472.36   0.006855   34.64  0.001453  (-0.016097 -0.025041  0.023805)
100:   1473.67   0.002955   14.93  0.000626  ( 0.003099 -0.023870  0.006812)
101:   1481.11   0.016601   83.89  0.003498  ( 0.040800  0.042176  0.007365)
102:   1482.63   0.004836   24.44  0.001018  (-0.004584 -0.012497 -0.028996)
103:   1493.40   0.016885   85.33  0.003528  ( 0.000605  0.002930 -0.059323)
104:   1498.29   0.012316   62.24  0.002565  ( 0.015491 -0.018257 -0.044630)
105:   1527.96   0.000633    3.20  0.000129  (-0.011258  0.001413  0.000724)
106:   1538.51   0.035650  180.16  0.007231  (-0.018324  0.032507  0.076411)
107:   1587.88   0.181199  915.71  0.035611  ( 0.159912  0.049873 -0.086900)
108:   1648.48   0.001698    8.58  0.000321  ( 0.000184 -0.001689 -0.017848)
109:   1649.97   0.002663   13.46  0.000504  (-0.013315  0.008074  0.016161)
110:   1664.45   0.012591   63.63  0.002361  ( 0.000948 -0.023680 -0.042414)
111:   1665.56   0.011233   56.77  0.002105  (-0.040100  0.022219 -0.001720)
112:   1784.57   0.088667  448.08  0.015505  ( 0.019704 -0.016644  0.121818)
113:   2197.39   0.015961   80.66  0.002267  (-0.013873 -0.032491  0.031915)
114:   3036.86   0.012111   61.21  0.001245  (-0.028757  0.004189  0.020000)
115:   3073.43   0.005771   29.16  0.000586  (-0.014705 -0.018590 -0.004911)
116:   3108.69   0.007710   38.96  0.000774  ( 0.002965 -0.024315  0.013188)
117:   3110.20   0.000818    4.13  0.000082  (-0.004583 -0.006607  0.004175)
118:   3157.70   0.003689   18.64  0.000365  (-0.015567  0.010478  0.003534)
119:   3165.37   0.003726   18.83  0.000367  ( 0.005075  0.008849  0.016227)
120:   3180.33   0.000898    4.54  0.000088  ( 0.009023  0.001663 -0.001989)
121:   3192.54   0.002028   10.25  0.000198  (-0.002221 -0.006897  0.012071)
122:   3196.00   0.001272    6.43  0.000124  (-0.010454 -0.003504 -0.001636)
123:   3202.30   0.000695    3.51  0.000068  (-0.006297  0.003884 -0.003603)
124:   3206.60   0.000764    3.86  0.000074  ( 0.007842 -0.003564  0.000381)
125:   3213.18   0.000032    0.16  0.000003  ( 0.000390  0.000311  0.001704)
126:   3214.47   0.002788   14.09  0.000271  (-0.002183 -0.007408 -0.014527)
127:   3230.51   0.000149    0.75  0.000014  ( 0.000636  0.000065  0.003739)
128:   3230.74   0.000346    1.75  0.000033  ( 0.005280  0.000406 -0.002324)
129:   3234.69   0.000322    1.63  0.000031  ( 0.004441 -0.003364  0.000089)
130:   3278.25   0.000250    1.26  0.000024  (-0.002976  0.002209  0.003170)
131:   3449.48   0.046149  233.22  0.004175  ( 0.009451  0.048953 -0.041100)

--------------------------
THERMOCHEMISTRY AT 298.15K
--------------------------

Temperature         ... 298.15 K
Pressure            ... 1.00 atm
Total Mass          ... 354.36 AMU

Throughout the following assumptions are being made:
  (1) The electronic state is orbitally nondegenerate
  (2) There are no thermally accessible electronically excited states
  (3) Hindered rotations indicated by low frequency modes are not
      treated as such but are treated as vibrations and this may
      cause some error
  (4) All equations used are the standard statistical mechanics
      equations for an ideal gas
  (5) All vibrations are strictly harmonic

freq.      19.46  E(vib)   ...       0.57
freq.      33.36  E(vib)   ...       0.55
freq.      39.22  E(vib)   ...       0.54
freq.      54.06  E(vib)   ...       0.52
freq.      58.41  E(vib)   ...       0.51
freq.      63.54  E(vib)   ...       0.51
freq.      72.06  E(vib)   ...       0.50
freq.      78.10  E(vib)   ...       0.49
freq.      98.82  E(vib)   ...       0.46
freq.     103.48  E(vib)   ...       0.46
freq.     122.01  E(vib)   ...       0.44
freq.     145.10  E(vib)   ...       0.41
freq.     152.87  E(vib)   ...       0.40
freq.     156.96  E(vib)   ...       0.40
freq.     167.58  E(vib)   ...       0.38
freq.     181.82  E(vib)   ...       0.37
freq.     192.57  E(vib)   ...       0.36
freq.     212.47  E(vib)   ...       0.34
freq.     234.39  E(vib)   ...       0.32
freq.     244.66  E(vib)   ...       0.31
freq.     264.23  E(vib)   ...       0.29
freq.     269.76  E(vib)   ...       0.29
freq.     289.60  E(vib)   ...       0.27
freq.     316.58  E(vib)   ...       0.25
freq.     329.81  E(vib)   ...       0.24
freq.     372.13  E(vib)   ...       0.21
freq.     398.14  E(vib)   ...       0.20
freq.     444.82  E(vib)   ...       0.17
freq.     450.90  E(vib)   ...       0.17
freq.     484.19  E(vib)   ...       0.15
freq.     490.00  E(vib)   ...       0.15
freq.     513.10  E(vib)   ...       0.13
freq.     557.52  E(vib)   ...       0.12
freq.     584.38  E(vib)   ...       0.11
freq.     587.79  E(vib)   ...       0.10
freq.     597.43  E(vib)   ...       0.10
freq.     612.47  E(vib)   ...       0.10
freq.     627.61  E(vib)   ...       0.09
freq.     636.79  E(vib)   ...       0.09
freq.     659.74  E(vib)   ...       0.08
freq.     702.24  E(vib)   ...       0.07
freq.     713.17  E(vib)   ...       0.07
freq.     725.86  E(vib)   ...       0.06
freq.     734.46  E(vib)   ...       0.06
freq.     740.17  E(vib)   ...       0.06
freq.     767.58  E(vib)   ...       0.06
freq.     771.09  E(vib)   ...       0.05
freq.     777.90  E(vib)   ...       0.05
freq.     779.16  E(vib)   ...       0.05
freq.     808.95  E(vib)   ...       0.05
freq.     838.33  E(vib)   ...       0.04
freq.     873.55  E(vib)   ...       0.04
freq.     888.91  E(vib)   ...       0.04
freq.     894.81  E(vib)   ...       0.03
freq.     962.90  E(vib)   ...       0.03
freq.     969.39  E(vib)   ...       0.03
freq.     981.22  E(vib)   ...       0.02
freq.     994.49  E(vib)   ...       0.02
freq.    1016.39  E(vib)   ...       0.02
freq.    1032.48  E(vib)   ...       0.02
freq.    1042.11  E(vib)   ...       0.02
freq.    1044.16  E(vib)   ...       0.02
freq.    1060.01  E(vib)   ...       0.02
freq.    1071.09  E(vib)   ...       0.02
freq.    1083.95  E(vib)   ...       0.02
freq.    1094.85  E(vib)   ...       0.02
freq.    1109.23  E(vib)   ...       0.02
freq.    1111.95  E(vib)   ...       0.01
freq.    1129.79  E(vib)   ...       0.01
freq.    1142.82  E(vib)   ...       0.01
freq.    1168.06  E(vib)   ...       0.01
freq.    1170.93  E(vib)   ...       0.01
freq.    1172.02  E(vib)   ...       0.01
freq.    1175.05  E(vib)   ...       0.01
freq.    1193.61  E(vib)   ...       0.01
freq.    1198.45  E(vib)   ...       0.01
freq.    1213.72  E(vib)   ...       0.01
freq.    1221.65  E(vib)   ...       0.01
freq.    1235.37  E(vib)   ...       0.01
freq.    1236.25  E(vib)   ...       0.01
freq.    1267.21  E(vib)   ...       0.01
freq.    1289.43  E(vib)   ...       0.01
freq.    1301.81  E(vib)   ...       0.01
freq.    1313.24  E(vib)   ...       0.01
freq.    1325.09  E(vib)   ...       0.01
freq.    1341.83  E(vib)   ...       0.01
freq.    1379.99  E(vib)   ...       0.01
freq.    1385.86  E(vib)   ...       0.00
freq.    1395.70  E(vib)   ...       0.00
freq.    1430.05  E(vib)   ...       0.00
freq.    1465.29  E(vib)   ...       0.00
freq.    1466.16  E(vib)   ...       0.00
freq.    1472.36  E(vib)   ...       0.00
freq.    1473.67  E(vib)   ...       0.00
freq.    1481.11  E(vib)   ...       0.00
freq.    1482.63  E(vib)   ...       0.00
freq.    1493.40  E(vib)   ...       0.00
freq.    1498.29  E(vib)   ...       0.00
freq.    1527.96  E(vib)   ...       0.00
freq.    1538.51  E(vib)   ...       0.00
freq.    1587.88  E(vib)   ...       0.00
freq.    1648.48  E(vib)   ...       0.00
freq.    1649.97  E(vib)   ...       0.00
freq.    1664.45  E(vib)   ...       0.00
freq.    1665.56  E(vib)   ...       0.00
freq.    1784.57  E(vib)   ...       0.00
freq.    2197.39  E(vib)   ...       0.00
freq.    3036.86  E(vib)   ...       0.00
freq.    3073.43  E(vib)   ...       0.00
freq.    3108.69  E(vib)   ...       0.00
freq.    3110.20  E(vib)   ...       0.00
freq.    3157.70  E(vib)   ...       0.00
freq.    3165.37  E(vib)   ...       0.00
freq.    3180.33  E(vib)   ...       0.00
freq.    3192.54  E(vib)   ...       0.00
freq.    3196.00  E(vib)   ...       0.00
freq.    3202.30  E(vib)   ...       0.00
freq.    3206.60  E(vib)   ...       0.00
freq.    3213.18  E(vib)   ...       0.00
freq.    3214.47  E(vib)   ...       0.00
freq.    3230.51  E(vib)   ...       0.00
freq.    3230.74  E(vib)   ...       0.00
freq.    3234.69  E(vib)   ...       0.00
freq.    3278.25  E(vib)   ...       0.00
freq.    3449.48  E(vib)   ...       0.00

------------
INNER ENERGY
------------

The inner energy is: U= E(el) + E(ZPE) + E(vib) + E(rot) + E(trans)
    E(el)   - is the total energy from the electronic structure calculation
              = E(kin-el) + E(nuc-el) + E(el-el) + E(nuc-nuc)
    E(ZPE)  - the the zero temperature vibrational energy from the frequency calculation
    E(vib)  - the the finite temperature correction to E(ZPE) due to population
              of excited vibrational states
    E(rot)  - is the rotational thermal energy
    E(trans)- is the translational thermal energy

Summary of contributions to the inner energy U:
Electronic energy                ...  -1219.39729701 Eh
Zero point energy                ...      0.34121316 Eh     214.11 kcal/mol
Thermal vibrational correction   ...      0.02130525 Eh      13.37 kcal/mol
Thermal rotational correction    ...      0.00141627 Eh       0.89 kcal/mol

Rotational constants in cm-1:     0.008413     0.007427     0.005118

                             ****ORCA TERMINATED NORMALLY****
TOTAL RUN TIME: 0 days 1 hours 44 minutes 32 seconds 839 msec
