                         Program Version 5.0.4 -  RELEASE  -
|  1> %pal nprocs 24 end
|  2> %maxcore 3500
|  3> ! PBE0 D3BJ def2-TZVP TightSCF OPTTS FREQ TightOpt
|  4> ! CPCM(dmso)
|  5> %scf
|  6> MaxIter 800
|  7> end
|  8> %geom
|  9> calc_hess True
| 10> MaxIter 800
| 11> MaxStep 0.2
| 12> end
| 13> *xyz 0 1
| 14> C       -4.311526000      1.048232000      0.368972000
| 15> C       -3.823076000      0.725982000     -0.896345000
| 16> C       -2.451876000      0.785041000     -1.113683000
| 17> N       -1.607575000      1.133030000     -0.143679000
| 18> C       -2.057366000      1.439783000      1.072644000
| 19> C       -3.415048000      1.417297000      1.369658000
| 20> C        0.324457000      1.033238000     -0.609404000
| 21> C        0.609653000      2.366594000     -0.000957000
| 22> O        0.960406000      2.517544000      1.146813000
| 23> O        0.388669000      3.351262000     -0.856754000
| 24> C        0.633127000      4.670216000     -0.381324000
| 25> H       -5.384167000      1.011246000      0.573268000
| 26> H       -2.014076000      0.537675000     -2.085464000
| 27> H       -1.307435000      1.710917000      1.821382000
| 28> H       -3.755254000      1.678344000      2.373090000
| 29> H        0.021142000      0.993298000     -1.651967000
| 30> H        0.382534000      5.343653000     -1.208119000
| 31> H        1.689848000      4.789625000     -0.102090000
| 32> C        2.080414000     -0.437836000      0.252536000
| 33> C        0.603677000     -0.235484000      0.186099000
| 34> C       -0.135357000     -1.420100000     -0.408415000
| 35> C        0.201789000     -1.894532000     -1.675319000
| 36> C       -0.494660000     -2.948178000     -2.266924000
| 37> C       -1.545926000     -3.540930000     -1.570532000
| 38> C       -1.898358000     -3.091328000     -0.297852000
| 39> C       -1.195180000     -2.031999000      0.289705000
| 40> O       -1.478398000     -1.534716000      1.510919000
| 41> C       -2.600715000     -2.017910000      2.209625000
| 42> N        2.811664000      0.295985000     -0.548366000
| 43> O        4.049451000      0.262151000     -0.665205000
| 44> H        0.229067000     -0.075348000      1.207374000
| 45> H        1.026466000     -1.414113000     -2.210459000
| 46> H       -0.218460000     -3.301572000     -3.262771000
| 47> H       -2.105251000     -4.367467000     -2.016318000
| 48> H       -2.722971000     -3.568503000      0.232571000
| 49> H       -2.491387000     -3.085071000      2.464590000
| 50> H       -3.526523000     -1.877343000      1.627449000
| 51> H       -2.666950000     -1.431322000      3.134112000
| 52> O        2.150028000      1.158977000     -1.303937000
| 53> H        0.002207000      4.889239000      0.492018000
| 54> H       -4.489628000      0.429494000     -1.707841000
| 55> H        2.579628000     -1.161426000      0.892941000
| 56> *
| 57>
| 58>                          ****END OF INPUT****
 Total Charge           Charge          ....    0
 Multiplicity           Mult            ....    1
 Number of Electrons    NEL             ....  174
Dispersion correction           -0.053411049
FINAL SINGLE POINT ENERGY     -1143.304562571064
Dispersion correction            ... done
Dispersion correction in the Hessian             ... done   (      0.6 sec)
Dispersion correction           -0.053448497
FINAL SINGLE POINT ENERGY     -1143.306567727268
Dispersion correction            ... done
Dispersion correction           -0.053300886
FINAL SINGLE POINT ENERGY     -1143.306597472585
FINAL SINGLE POINT ENERGY     -1143.306604732932
FINAL SINGLE POINT ENERGY     -1143.306593638259
FINAL SINGLE POINT ENERGY     -1143.306588230945
FINAL SINGLE POINT ENERGY     -1143.306579529494
FINAL SINGLE POINT ENERGY     -1143.306571080134
FINAL SINGLE POINT ENERGY     -1143.306570227791
FINAL SINGLE POINT ENERGY     -1143.306568994550
FINAL SINGLE POINT ENERGY     -1143.306571565636
FINAL SINGLE POINT ENERGY     -1143.306579529777
FINAL SINGLE POINT ENERGY     -1143.306576472151
Dispersion correction           -0.053250009
FINAL SINGLE POINT ENERGY     -1143.306575894649
Dispersion correction            ... done
Dispersion correction           -0.053250073
FINAL SINGLE POINT ENERGY     -1143.306576400245
Dispersion correction            ... done
                    ***********************HURRAY********************

CARTESIAN COORDINATES (ANGSTROEM)
---------------------------------
  C     -4.317082    1.038647    0.184547
  C     -3.783519    0.792883   -1.071941
  C     -2.412590    0.851254   -1.231460
  N     -1.603583    1.130505   -0.214096
  C     -2.101660    1.368673    0.994601
  C     -3.463277    1.336545    1.234477
  C      0.350694    1.046783   -0.615506
  C      0.596444    2.372091    0.019580
  O      0.902186    2.509016    1.179950
  O      0.402369    3.363769   -0.834196
  C      0.621521    4.681753   -0.321868
  H     -5.388135    0.997771    0.343137
  H     -1.944855    0.659345   -2.190904
  H     -1.389207    1.588084    1.781733
  H     -3.837360    1.535891    2.230197
  H      0.080914    1.012406   -1.657329
  H      0.422014    5.354960   -1.151275
  H      1.652602    4.787837    0.016030
  C      2.071472   -0.474600    0.218854
  C      0.605786   -0.221588    0.177780
  C     -0.165013   -1.394923   -0.390050
  C      0.085800   -1.839920   -1.679504
  C     -0.641962   -2.878410   -2.242562
  C     -1.637393   -3.487121   -1.494238
  C     -1.897998   -3.072156   -0.195498
  C     -1.160910   -2.030720    0.363069
  O     -1.352289   -1.573683    1.620414
  C     -2.442947   -2.084888    2.361370
  N      2.821815    0.267004   -0.535943
  O      4.071062    0.190881   -0.657123
  H      0.259549   -0.042473    1.197433
  H      0.865054   -1.352559   -2.257545
  H     -0.434245   -3.205505   -3.254250
  H     -2.220355   -4.297902   -1.916508
  H     -2.675159   -3.561229    0.376223
  H     -2.323754   -3.154140    2.557316
  H     -3.387728   -1.912432    1.837721
  H     -2.446036   -1.541478    3.304063
  O      2.201445    1.197540   -1.247099
  H     -0.059336    4.883123    0.505354
  H     -4.413866    0.555390   -1.918943
  H      2.536597   -1.242778    0.816030

 Multiplicity           Mult            ....    1
 Number of Electrons    NEL             ....  174
 Basis Dimension        Dim             ....  852

ORBITAL ENERGIES
----------------

  NO   OCC          E(Eh)            E(eV)
   0   2.0000     -19.265334      -524.2364
   1   2.0000     -19.245574      -523.6987
   2   2.0000     -19.210555      -522.7458
   3   2.0000     -19.205758      -522.6153
   4   2.0000     -19.178865      -521.8835
   5   2.0000     -14.559552      -396.1855
   6   2.0000     -14.443539      -393.0287
   7   2.0000     -10.366882      -282.0972
   8   2.0000     -10.325249      -280.9643
   9   2.0000     -10.291337      -280.0415
  10   2.0000     -10.285635      -279.8864
  11   2.0000     -10.285154      -279.8733
  12   2.0000     -10.271141      -279.4920
  13   2.0000     -10.266655      -279.3699
  14   2.0000     -10.260443      -279.2009
  15   2.0000     -10.259954      -279.1876
  16   2.0000     -10.250931      -278.9420
  17   2.0000     -10.250757      -278.9373
  18   2.0000     -10.246944      -278.8335
  19   2.0000     -10.239435      -278.6292
  20   2.0000     -10.230035      -278.3734
  21   2.0000     -10.229874      -278.3690
  22   2.0000     -10.226370      -278.2737
  23   2.0000     -10.222163      -278.1592
  24   2.0000      -1.191994       -32.4358
  25   2.0000      -1.156221       -31.4624
  26   2.0000      -1.108466       -30.1629
  27   2.0000      -1.064168       -28.9575
  28   2.0000      -1.020457       -27.7680
  29   2.0000      -1.016587       -27.6627
  30   2.0000      -0.900180       -24.4951
  31   2.0000      -0.869430       -23.6584
  32   2.0000      -0.855427       -23.2774
  33   2.0000      -0.825380       -22.4597
  34   2.0000      -0.815795       -22.1989
  35   2.0000      -0.793168       -21.5832
  36   2.0000      -0.778439       -21.1824
  37   2.0000      -0.751630       -20.4529
  38   2.0000      -0.719331       -19.5740
  39   2.0000      -0.691124       -18.8064
  40   2.0000      -0.681510       -18.5448
  41   2.0000      -0.668249       -18.1840
  42   2.0000      -0.626536       -17.0489
  43   2.0000      -0.614809       -16.7298
  44   2.0000      -0.604661       -16.4537
  45   2.0000      -0.587209       -15.9788
  46   2.0000      -0.572602       -15.5813
  47   2.0000      -0.564882       -15.3712
  48   2.0000      -0.548071       -14.9138
  49   2.0000      -0.530896       -14.4464
  50   2.0000      -0.525817       -14.3082
  51   2.0000      -0.522619       -14.2212
  52   2.0000      -0.510783       -13.8991
  53   2.0000      -0.510196       -13.8831
  54   2.0000      -0.501416       -13.6442
  55   2.0000      -0.498715       -13.5707
  56   2.0000      -0.496413       -13.5081
  57   2.0000      -0.491950       -13.3866
  58   2.0000      -0.482947       -13.1416
  59   2.0000      -0.466248       -12.6872
  60   2.0000      -0.463635       -12.6161
  61   2.0000      -0.458764       -12.4836
  62   2.0000      -0.452142       -12.3034
  63   2.0000      -0.448695       -12.2096
  64   2.0000      -0.433430       -11.7942
  65   2.0000      -0.424734       -11.5576
  66   2.0000      -0.423027       -11.5112
  67   2.0000      -0.414393       -11.2762
  68   2.0000      -0.411923       -11.2090
  69   2.0000      -0.396868       -10.7993
  70   2.0000      -0.395156       -10.7527
  71   2.0000      -0.385102       -10.4792
  72   2.0000      -0.381363       -10.3774
  73   2.0000      -0.368555       -10.0289
  74   2.0000      -0.355957        -9.6861
  75   2.0000      -0.346546        -9.4300
  76   2.0000      -0.341424        -9.2906
  77   2.0000      -0.334204        -9.0942
  78   2.0000      -0.327989        -8.9250
  79   2.0000      -0.321653        -8.7526
  80   2.0000      -0.303761        -8.2658
  81   2.0000      -0.299817        -8.1584
  82   2.0000      -0.296651        -8.0723
  83   2.0000      -0.272994        -7.4285
  84   2.0000      -0.269435        -7.3317
  85   2.0000      -0.242044        -6.5864
  86   2.0000      -0.221673        -6.0320
  87   0.0000      -0.056208        -1.5295
  88   0.0000      -0.037510        -1.0207
  89   0.0000      -0.032565        -0.8861
  90   0.0000      -0.017656        -0.4804
  91   0.0000      -0.003525        -0.0959

MULLIKEN ATOMIC CHARGES
-----------------------
   0 C :   -0.105814
   1 C :   -0.154757
   2 C :   -0.020291
   3 N :   -0.105119
   4 C :   -0.015300
   5 C :   -0.144967
   6 C :    0.037758
   7 C :    0.322527
   8 O :   -0.395422
   9 O :   -0.218118
  10 C :   -0.265525
  11 H :    0.176178
  12 H :    0.176931
  13 H :    0.182618
  14 H :    0.175701
  15 H :    0.175655
  16 H :    0.164528
  17 H :    0.155690
  18 C :   -0.302423
  19 C :    0.148989
  20 C :   -0.048142
  21 C :   -0.167358
  22 C :   -0.198672
  23 C :   -0.143348
  24 C :   -0.301635
  25 C :    0.270270
  26 O :   -0.266013
  27 C :   -0.277656
  28 N :    0.449869
  29 O :   -0.565902
  30 H :    0.123704
  31 H :    0.160802
  32 H :    0.146069
  33 H :    0.152158
  34 H :    0.163787
  35 H :    0.158472
  36 H :    0.152018
  37 H :    0.159545
  38 O :   -0.455093
  39 H :    0.154600
  40 H :    0.177131
  41 H :    0.166554
Sum of atomic charges:   -0.0000000

LOEWDIN ATOMIC CHARGES
----------------------
   0 C :   -0.086530
   1 C :   -0.121204
   2 C :   -0.153485
   3 N :    0.264978
   4 C :   -0.156045
   5 C :   -0.120103
   6 C :   -0.066616
   7 C :   -0.526373
   8 O :    0.090073
   9 O :    0.273939
  10 C :   -0.300429
  11 H :    0.165180
  12 H :    0.161137
  13 H :    0.160289
  14 H :    0.165484
  15 H :    0.166115
  16 H :    0.122892
  17 H :    0.120131
  18 C :   -0.215309
  19 C :   -0.203362
  20 C :   -0.106338
  21 C :   -0.107289
  22 C :   -0.164876
  23 C :   -0.145930
  24 C :   -0.139054
  25 C :   -0.234578
  26 O :    0.251937
  27 C :   -0.328918
  28 N :   -0.033559
  29 O :   -0.253924
  30 H :    0.185005
  31 H :    0.162820
  32 H :    0.152042
  33 H :    0.154486
  34 H :    0.160372
  35 H :    0.117900
  36 H :    0.117299
  37 H :    0.122176
  38 O :   -0.082971
  39 H :    0.119449
  40 H :    0.165272
  41 H :    0.147916

  Mayer bond orders larger than 0.100000
B(  0-C ,  1-C ) :   1.4115 B(  0-C ,  5-C ) :   1.4231 B(  0-C , 11-H ) :   0.9474
B(  1-C ,  2-C ) :   1.4401 B(  1-C , 40-H ) :   0.9526 B(  2-C ,  3-N ) :   1.3579
B(  2-C , 12-H ) :   0.9356 B(  3-N ,  4-C ) :   1.3218 B(  3-N ,  6-C ) :   0.3429
B(  4-C ,  5-C ) :   1.4384 B(  4-C , 13-H ) :   0.9321 B(  5-C , 14-H ) :   0.9526
B(  6-C ,  7-C ) :   0.9648 B(  6-C , 15-H ) :   0.9358 B(  6-C , 19-C ) :   1.0818
B(  6-C , 38-O ) :   0.3234 B(  7-C ,  8-O ) :   1.9747 B(  7-C ,  9-O ) :   1.2805
B(  7-C , 38-O ) :   0.1213 B(  9-O , 10-C ) :   0.8867 B( 10-C , 16-H ) :   0.9642
B( 10-C , 17-H ) :   0.9676 B( 10-C , 39-H ) :   0.9662 B( 18-C , 19-C ) :   0.9614
B( 18-C , 28-N ) :   1.6187 B( 18-C , 29-O ) :   0.2317 B( 18-C , 38-O ) :   0.1132
B( 18-C , 41-H ) :   0.9638 B( 19-C , 20-C ) :   0.8419 B( 19-C , 30-H ) :   0.9120
B( 20-C , 21-C ) :   1.3643 B( 20-C , 25-C ) :   1.2968 B( 21-C , 22-C ) :   1.4009
B( 21-C , 31-H ) :   0.9746 B( 22-C , 23-C ) :   1.3969 B( 22-C , 32-H ) :   0.9822
B( 23-C , 24-C ) :   1.3949 B( 23-C , 33-H ) :   0.9666 B( 24-C , 25-C ) :   1.3779
B( 24-C , 34-H ) :   0.9617 B( 25-C , 26-O ) :   1.1116 B( 26-O , 27-C ) :   0.9347
B( 27-C , 35-H ) :   0.9576 B( 27-C , 36-H ) :   0.9643 B( 27-C , 37-H ) :   0.9654
B( 28-N , 29-O ) :   1.3263 B( 28-N , 38-O ) :   1.0804

Dispersion correction           -0.053250097
FINAL SINGLE POINT ENERGY     -1143.306575899381

DIPOLE MOMENT
-------------
                                X             Y             Z
Electronic contribution:      7.99198       1.95750      -2.49247
Nuclear contribution   :    -15.63906      -2.17988       3.30992
                        -----------------------------------------
Total Dipole Moment    :     -7.64708      -0.22238       0.81745
                        -----------------------------------------
Magnitude (a.u.)       :      7.69387
Magnitude (Debye)      :     19.55625

Dispersion correction in the Hessian             ... done   (      0.7 sec)

VIBRATIONAL FREQUENCIES
-----------------------

Scaling factor for frequencies =  1.000000000  (already applied!)

   0:         0.00 cm**-1
   1:         0.00 cm**-1
   2:         0.00 cm**-1
   3:         0.00 cm**-1
   4:         0.00 cm**-1
   5:         0.00 cm**-1
   6:      -549.72 cm**-1 ***imaginary mode***
   7:        20.65 cm**-1
   8:        40.35 cm**-1
   9:        43.49 cm**-1
  10:        55.92 cm**-1
  11:        65.82 cm**-1
  12:        77.06 cm**-1
  13:        85.03 cm**-1
  14:        95.58 cm**-1
  15:       104.69 cm**-1
  16:       127.69 cm**-1
  17:       144.76 cm**-1
  18:       157.39 cm**-1
  19:       161.89 cm**-1
  20:       177.39 cm**-1
  21:       191.93 cm**-1
  22:       215.11 cm**-1
  23:       232.79 cm**-1
  24:       245.14 cm**-1
  25:       261.22 cm**-1
  26:       275.16 cm**-1
  27:       300.55 cm**-1
  28:       324.94 cm**-1
  29:       334.46 cm**-1
  30:       397.06 cm**-1
  31:       399.53 cm**-1
  32:       449.16 cm**-1
  33:       481.66 cm**-1
  34:       492.81 cm**-1
  35:       547.16 cm**-1
  36:       581.16 cm**-1
  37:       587.54 cm**-1
  38:       617.07 cm**-1
  39:       634.64 cm**-1
  40:       659.28 cm**-1
  41:       664.82 cm**-1
  42:       680.83 cm**-1
  43:       713.58 cm**-1
  44:       727.51 cm**-1
  45:       752.93 cm**-1
  46:       763.57 cm**-1
  47:       767.86 cm**-1
  48:       774.75 cm**-1
  49:       778.23 cm**-1
  50:       794.27 cm**-1
  51:       808.98 cm**-1
  52:       862.78 cm**-1
  53:       876.03 cm**-1
  54:       895.37 cm**-1
  55:       962.68 cm**-1
  56:       967.40 cm**-1
  57:       973.49 cm**-1
  58:       982.77 cm**-1
  59:       994.35 cm**-1
  60:      1008.18 cm**-1
  61:      1018.00 cm**-1
  62:      1041.01 cm**-1
  63:      1041.56 cm**-1
  64:      1058.32 cm**-1
  65:      1061.20 cm**-1
  66:      1072.32 cm**-1
  67:      1083.73 cm**-1
  68:      1096.20 cm**-1
  69:      1112.18 cm**-1
  70:      1132.71 cm**-1
  71:      1150.84 cm**-1
  72:      1168.94 cm**-1
  73:      1171.19 cm**-1
  74:      1171.99 cm**-1
  75:      1174.24 cm**-1
  76:      1191.58 cm**-1
  77:      1195.51 cm**-1
  78:      1213.17 cm**-1
  79:      1219.65 cm**-1
  80:      1224.93 cm**-1
  81:      1237.26 cm**-1
  82:      1273.51 cm**-1
  83:      1289.71 cm**-1
  84:      1300.36 cm**-1
  85:      1320.45 cm**-1
  86:      1323.31 cm**-1
  87:      1341.73 cm**-1
  88:      1347.01 cm**-1
  89:      1379.68 cm**-1
  90:      1386.81 cm**-1
  91:      1427.53 cm**-1
  92:      1465.18 cm**-1
  93:      1465.85 cm**-1
  94:      1472.42 cm**-1
  95:      1473.25 cm**-1
  96:      1480.74 cm**-1
  97:      1483.77 cm**-1
  98:      1494.49 cm**-1
  99:      1497.63 cm**-1
 100:      1528.30 cm**-1
 101:      1537.22 cm**-1
 102:      1648.20 cm**-1
 103:      1648.81 cm**-1
 104:      1663.42 cm**-1
 105:      1666.25 cm**-1
 106:      1667.76 cm**-1
 107:      1780.95 cm**-1
 108:      3036.84 cm**-1
 109:      3071.90 cm**-1
 110:      3101.18 cm**-1
 111:      3108.52 cm**-1
 112:      3155.39 cm**-1
 113:      3164.87 cm**-1
 114:      3180.68 cm**-1
 115:      3190.69 cm**-1
 116:      3195.09 cm**-1
 117:      3201.60 cm**-1
 118:      3206.79 cm**-1
 119:      3213.24 cm**-1
 120:      3213.58 cm**-1
 121:      3230.57 cm**-1
 122:      3231.01 cm**-1
 123:      3234.75 cm**-1
 124:      3267.37 cm**-1
 125:      3274.94 cm**-1

IR SPECTRUM
-----------

 Mode   freq       eps      Int      T**2         TX        TY        TZ
       cm**-1   L/(mol*cm) km/mol    a.u.
----------------------------------------------------------------------------
  7:     20.65   0.000101    0.51  0.001526  ( 0.000334  0.018023  0.034657)
  8:     40.35   0.000258    1.31  0.001998  ( 0.018333 -0.016179 -0.037423)
  9:     43.49   0.000160    0.81  0.001150  ( 0.003512 -0.032981  0.007040)
 10:     55.92   0.000710    3.59  0.003965  ( 0.059505 -0.003949  0.020204)
 11:     65.82   0.000099    0.50  0.000467  ( 0.014895 -0.010028  0.012032)
 12:     77.06   0.000859    4.34  0.003477  (-0.015500  0.044214  0.035801)
 13:     85.03   0.000480    2.43  0.001762  ( 0.039111 -0.014953 -0.002949)
 14:     95.58   0.000312    1.58  0.001018  ( 0.014364 -0.002834 -0.028354)
 15:    104.69   0.001699    8.59  0.005065  ( 0.041523 -0.049743  0.029429)
 16:    127.69   0.003255   16.45  0.007954  (-0.040704  0.062096  0.049405)
 17:    144.76   0.001090    5.51  0.002349  (-0.026907  0.040132  0.003752)
 18:    157.39   0.001843    9.31  0.003653  ( 0.058531 -0.009764 -0.011483)
 19:    161.89   0.000619    3.13  0.001193  ( 0.018657 -0.016617 -0.023855)
 20:    177.39   0.000744    3.76  0.001308  (-0.021105 -0.001139 -0.029350)
 21:    191.93   0.005300   26.78  0.008617  (-0.092796 -0.001833  0.001700)
 22:    215.11   0.000078    0.39  0.000113  (-0.009427 -0.001767 -0.004621)
 23:    232.79   0.002955   14.93  0.003961  ( 0.050801 -0.035523 -0.010897)
 24:    245.14   0.000105    0.53  0.000134  (-0.009425  0.006724  0.000475)
 25:    261.22   0.001406    7.11  0.001680  (-0.004054  0.040256 -0.006557)
 26:    275.16   0.001074    5.43  0.001217  (-0.009290  0.033299 -0.004730)
 27:    300.55   0.002923   14.77  0.003035  ( 0.005409  0.033071 -0.043727)
 28:    324.94   0.001789    9.04  0.001718  (-0.011732 -0.039136 -0.006976)
 29:    334.46   0.001518    7.67  0.001417  ( 0.002376 -0.029035  0.023830)
 30:    397.06   0.002903   14.67  0.002282  (-0.034722  0.031572  0.008900)
 31:    399.53   0.000225    1.14  0.000176  (-0.010153  0.008347  0.001811)
 32:    449.16   0.002317   11.71  0.001610  ( 0.023894  0.030715 -0.009785)
 33:    481.66   0.003425   17.31  0.002219  ( 0.042004  0.021300  0.000912)
 34:    492.81   0.000779    3.94  0.000493  ( 0.012776 -0.000128  0.018165)
 35:    547.16   0.003503   17.70  0.001998  (-0.039830  0.019887 -0.003978)
 36:    581.16   0.002537   12.82  0.001362  (-0.002733  0.027952  0.023951)
 37:    587.54   0.003450   17.44  0.001832  ( 0.042014 -0.005704  0.005895)
 38:    617.07   0.002424   12.25  0.001226  (-0.001424 -0.033951  0.008439)
 39:    634.64   0.002239   11.31  0.001101  ( 0.033053 -0.002863  0.000275)
 40:    659.28   0.000204    1.03  0.000096  ( 0.009410  0.002420  0.001414)
 41:    664.82   0.001464    7.40  0.000687  (-0.018079 -0.014306 -0.012471)
 42:    680.83   0.005160   26.08  0.002365  ( 0.004382  0.031769  0.036559)
 43:    713.58   0.019434   98.21  0.008499  (-0.006567  0.089566 -0.020829)
 44:    727.51   0.002839   14.35  0.001218  (-0.003103 -0.034732 -0.001371)
 45:    752.93   0.014072   71.11  0.005832  (-0.000598 -0.062890 -0.043321)
 46:    763.57   0.003946   19.94  0.001613  ( 0.030126 -0.010586 -0.024353)
 47:    767.86   0.014723   74.40  0.005983  (-0.063776  0.030873 -0.031031)
 48:    774.75   0.015058   76.10  0.006065  (-0.038014  0.060359 -0.031255)
 49:    778.23   0.005031   25.42  0.002017  ( 0.018631 -0.040755  0.003044)
 50:    794.27   0.002912   14.71  0.001144  ( 0.000932 -0.004430  0.033519)
 51:    808.98   0.002456   12.41  0.000948  (-0.002386 -0.012022 -0.028237)
 52:    862.78   0.002798   14.14  0.001012  ( 0.001896 -0.031505 -0.003971)
 53:    876.03   0.000562    2.84  0.000200  (-0.010856  0.008605 -0.002853)
 54:    895.37   0.000023    0.12  0.000008  ( 0.000199  0.001285 -0.002530)
 55:    962.68   0.001731    8.75  0.000561  ( 0.009474 -0.010977  0.018735)
 56:    967.40   0.000684    3.46  0.000221  (-0.003237 -0.009730  0.010745)
 57:    973.49   0.010868   54.92  0.003484  (-0.010246  0.057568 -0.008054)
 58:    982.77   0.002874   14.52  0.000913  (-0.003741  0.028324 -0.009813)
 59:    994.35   0.000027    0.14  0.000008  ( 0.001738 -0.001359 -0.001900)
 60:   1008.18   0.034194  172.80  0.010584  (-0.052784  0.064844 -0.059943)
 61:   1018.00   0.000114    0.57  0.000035  ( 0.002687 -0.002101  0.004818)
 62:   1041.01   0.007379   37.29  0.002212  (-0.036496 -0.021957  0.019947)
 63:   1041.56   0.002484   12.55  0.000744  (-0.019951 -0.014217  0.012004)
 64:   1058.32   0.008559   43.26  0.002524  ( 0.001576  0.050072  0.003769)
 65:   1061.20   0.006603   33.37  0.001942  (-0.001196  0.043931  0.003217)
 66:   1072.32   0.005559   28.09  0.001618  (-0.037871 -0.009829  0.009329)
 67:   1083.73   0.008467   42.79  0.002438  (-0.025478  0.001819  0.042257)
 68:   1096.20   0.008169   41.28  0.002326  (-0.047599 -0.002176  0.007432)
 69:   1112.18   0.001625    8.21  0.000456  ( 0.009629  0.008475 -0.017074)
 70:   1132.71   0.015618   78.93  0.004303  (-0.029064 -0.029569  0.050830)
 71:   1150.84   0.003627   18.33  0.000984  (-0.024383  0.019124  0.004830)
 72:   1168.94   0.000776    3.92  0.000207  ( 0.001743  0.006006  0.012963)
 73:   1171.19   0.000265    1.34  0.000071  ( 0.008406  0.000095 -0.000245)
 74:   1171.99   0.000441    2.23  0.000117  ( 0.010469  0.000763 -0.002689)
 75:   1174.24   0.001877    9.49  0.000499  ( 0.012882  0.011794 -0.013921)
 76:   1191.58   0.013558   68.51  0.003551  (-0.004033 -0.058727  0.009246)
 77:   1195.51   0.008030   40.58  0.002096  ( 0.003654 -0.045405 -0.004577)
 78:   1213.17   0.001873    9.46  0.000482  ( 0.020179  0.004151 -0.007572)
 79:   1219.65   0.013935   70.42  0.003565  (-0.006308 -0.058681  0.009067)
 80:   1224.93   0.001688    8.53  0.000430  ( 0.010338  0.017860 -0.002058)
 81:   1237.26   0.006592   33.31  0.001663  (-0.038039  0.014390  0.002945)
 82:   1273.51   0.104626  528.74  0.025638  ( 0.134476 -0.086913  0.000051)
 83:   1289.71   0.044272  223.73  0.010712  (-0.046552  0.072615 -0.057203)
 84:   1300.36   0.077658  392.45  0.018636  ( 0.073917 -0.004093 -0.114700)
 85:   1320.45   0.042937  216.99  0.010147  (-0.079064 -0.054518  0.030398)
 86:   1323.31   0.037071  187.34  0.008742  ( 0.067214  0.064641 -0.006774)
 87:   1341.73   0.002612   13.20  0.000608  ( 0.011249  0.018394  0.011947)
 88:   1347.01   0.002191   11.07  0.000508  ( 0.001384 -0.019347  0.011464)
 89:   1379.68   0.016985   85.84  0.003842  (-0.036371 -0.037201  0.033691)
 90:   1386.81   0.002092   10.57  0.000471  (-0.003931 -0.001632  0.021276)
 91:   1427.53   0.006705   33.89  0.001466  (-0.004588  0.038004 -0.000647)
 92:   1465.18   0.003572   18.05  0.000761  (-0.026626  0.000520  0.007179)
 93:   1465.85   0.005856   29.60  0.001247  ( 0.000658 -0.014665 -0.032113)
 94:   1472.42   0.007202   36.39  0.001526  ( 0.003345 -0.032661  0.021175)
 95:   1473.25   0.002962   14.97  0.000627  ( 0.014930 -0.019981  0.002300)
 96:   1480.74   0.015074   76.18  0.003177  (-0.008335 -0.054524 -0.011599)
 97:   1483.77   0.004654   23.52  0.000979  ( 0.000026  0.009744  0.029732)
 98:   1494.49   0.016588   83.83  0.003464  ( 0.006352 -0.000284  0.058509)
 99:   1497.63   0.011563   58.44  0.002409  (-0.017711  0.006884  0.045259)
100:   1528.30   0.000508    2.57  0.000104  (-0.009983 -0.001886  0.000727)
101:   1537.22   0.032991  166.72  0.006697  (-0.023249  0.022040  0.075307)
102:   1648.20   0.010995   55.56  0.002082  ( 0.034163  0.018662 -0.023798)
103:   1648.81   0.002804   14.17  0.000531  ( 0.004577  0.000043 -0.022577)
104:   1663.42   0.016534   83.56  0.003102  ( 0.022707 -0.004106 -0.050689)
105:   1666.25   0.005853   29.58  0.001096  ( 0.000218 -0.031330  0.010700)
106:   1667.76   0.096438  487.36  0.018045  (-0.110276 -0.067520  0.036404)
107:   1780.95   0.090427  456.98  0.015845  (-0.031201  0.007615 -0.121710)
108:   3036.84   0.012358   62.45  0.001270  (-0.025701 -0.011840  0.021660)
109:   3071.90   0.005885   29.74  0.000598  (-0.003789 -0.023480 -0.005676)
110:   3101.18   0.000467    2.36  0.000047  ( 0.000049  0.006821 -0.000663)
111:   3108.52   0.008005   40.46  0.000804  ( 0.015497 -0.020110  0.012613)
112:   3155.39   0.003875   19.58  0.000383  ( 0.018836 -0.000953 -0.005245)
113:   3164.87   0.003800   19.20  0.000375  ( 0.000888  0.010127  0.016471)
114:   3180.68   0.000795    4.02  0.000078  (-0.006289 -0.005736  0.002355)
115:   3190.69   0.002146   10.84  0.000210  ( 0.002687 -0.007541  0.012073)
116:   3195.09   0.001280    6.47  0.000125  (-0.007515 -0.008213 -0.001045)
117:   3201.60   0.000654    3.31  0.000064  (-0.007530 -0.000463 -0.002622)
118:   3206.79   0.001019    5.15  0.000099  ( 0.009800  0.001527  0.000915)
119:   3213.24   0.003041   15.37  0.000295  ( 0.000893 -0.007940 -0.015215)
120:   3213.58   0.000017    0.08  0.000002  ( 0.000635  0.000400  0.001020)
121:   3230.57   0.000132    0.67  0.000013  ( 0.000118 -0.000417 -0.003541)
122:   3231.01   0.000508    2.57  0.000049  (-0.004777 -0.003910  0.003308)
123:   3234.75   0.000353    1.78  0.000034  ( 0.005830 -0.000055 -0.000237)
124:   3267.37   0.002061   10.42  0.000197  (-0.010209 -0.008122  0.005163)
125:   3274.94   0.000215    1.09  0.000021  (-0.003742  0.001028  0.002337)

--------------------------
THERMOCHEMISTRY AT 298.15K
--------------------------

Temperature         ... 298.15 K
Pressure            ... 1.00 atm
Total Mass          ... 330.34 AMU

Throughout the following assumptions are being made:
  (1) The electronic state is orbitally nondegenerate
  (2) There are no thermally accessible electronically excited states
  (3) Hindered rotations indicated by low frequency modes are not
      treated as such but are treated as vibrations and this may
      cause some error
  (4) All equations used are the standard statistical mechanics
      equations for an ideal gas
  (5) All vibrations are strictly harmonic

freq.      20.65  E(vib)   ...       0.56
freq.      40.35  E(vib)   ...       0.54
freq.      43.49  E(vib)   ...       0.53
freq.      55.92  E(vib)   ...       0.52
freq.      65.82  E(vib)   ...       0.50
freq.      77.06  E(vib)   ...       0.49
freq.      85.03  E(vib)   ...       0.48
freq.      95.58  E(vib)   ...       0.47
freq.     104.69  E(vib)   ...       0.46
freq.     127.69  E(vib)   ...       0.43
freq.     144.76  E(vib)   ...       0.41
freq.     157.39  E(vib)   ...       0.40
freq.     161.89  E(vib)   ...       0.39
freq.     177.39  E(vib)   ...       0.37
freq.     191.93  E(vib)   ...       0.36
freq.     215.11  E(vib)   ...       0.34
freq.     232.79  E(vib)   ...       0.32
freq.     245.14  E(vib)   ...       0.31
freq.     261.22  E(vib)   ...       0.30
freq.     275.16  E(vib)   ...       0.28
freq.     300.55  E(vib)   ...       0.26
freq.     324.94  E(vib)   ...       0.24
freq.     334.46  E(vib)   ...       0.24
freq.     397.06  E(vib)   ...       0.20
freq.     399.53  E(vib)   ...       0.19
freq.     449.16  E(vib)   ...       0.17
freq.     481.66  E(vib)   ...       0.15
freq.     492.81  E(vib)   ...       0.14
freq.     547.16  E(vib)   ...       0.12
freq.     581.16  E(vib)   ...       0.11
freq.     587.54  E(vib)   ...       0.10
freq.     617.07  E(vib)   ...       0.09
freq.     634.64  E(vib)   ...       0.09
freq.     659.28  E(vib)   ...       0.08
freq.     664.82  E(vib)   ...       0.08
freq.     680.83  E(vib)   ...       0.08
freq.     713.58  E(vib)   ...       0.07
freq.     727.51  E(vib)   ...       0.06
freq.     752.93  E(vib)   ...       0.06
freq.     763.57  E(vib)   ...       0.06
freq.     767.86  E(vib)   ...       0.06
freq.     774.75  E(vib)   ...       0.05
freq.     778.23  E(vib)   ...       0.05
freq.     794.27  E(vib)   ...       0.05
freq.     808.98  E(vib)   ...       0.05
freq.     862.78  E(vib)   ...       0.04
freq.     876.03  E(vib)   ...       0.04
freq.     895.37  E(vib)   ...       0.03
freq.     962.68  E(vib)   ...       0.03
freq.     967.40  E(vib)   ...       0.03
freq.     973.49  E(vib)   ...       0.03
freq.     982.77  E(vib)   ...       0.02
freq.     994.35  E(vib)   ...       0.02
freq.    1008.18  E(vib)   ...       0.02
freq.    1018.00  E(vib)   ...       0.02
freq.    1041.01  E(vib)   ...       0.02
freq.    1041.56  E(vib)   ...       0.02
freq.    1058.32  E(vib)   ...       0.02
freq.    1061.20  E(vib)   ...       0.02
freq.    1072.32  E(vib)   ...       0.02
freq.    1083.73  E(vib)   ...       0.02
freq.    1096.20  E(vib)   ...       0.02
freq.    1112.18  E(vib)   ...       0.01
freq.    1132.71  E(vib)   ...       0.01
freq.    1150.84  E(vib)   ...       0.01
freq.    1168.94  E(vib)   ...       0.01
freq.    1171.19  E(vib)   ...       0.01
freq.    1171.99  E(vib)   ...       0.01
freq.    1174.24  E(vib)   ...       0.01
freq.    1191.58  E(vib)   ...       0.01
freq.    1195.51  E(vib)   ...       0.01
freq.    1213.17  E(vib)   ...       0.01
freq.    1219.65  E(vib)   ...       0.01
freq.    1224.93  E(vib)   ...       0.01
freq.    1237.26  E(vib)   ...       0.01
freq.    1273.51  E(vib)   ...       0.01
freq.    1289.71  E(vib)   ...       0.01
freq.    1300.36  E(vib)   ...       0.01
freq.    1320.45  E(vib)   ...       0.01
freq.    1323.31  E(vib)   ...       0.01
freq.    1341.73  E(vib)   ...       0.01
freq.    1347.01  E(vib)   ...       0.01
freq.    1379.68  E(vib)   ...       0.01
freq.    1386.81  E(vib)   ...       0.00
freq.    1427.53  E(vib)   ...       0.00
freq.    1465.18  E(vib)   ...       0.00
freq.    1465.85  E(vib)   ...       0.00
freq.    1472.42  E(vib)   ...       0.00
freq.    1473.25  E(vib)   ...       0.00
freq.    1480.74  E(vib)   ...       0.00
freq.    1483.77  E(vib)   ...       0.00
freq.    1494.49  E(vib)   ...       0.00
freq.    1497.63  E(vib)   ...       0.00
freq.    1528.30  E(vib)   ...       0.00
freq.    1537.22  E(vib)   ...       0.00
freq.    1648.20  E(vib)   ...       0.00
freq.    1648.81  E(vib)   ...       0.00
freq.    1663.42  E(vib)   ...       0.00
freq.    1666.25  E(vib)   ...       0.00
freq.    1667.76  E(vib)   ...       0.00
freq.    1780.95  E(vib)   ...       0.00
freq.    3036.84  E(vib)   ...       0.00
freq.    3071.90  E(vib)   ...       0.00
freq.    3101.18  E(vib)   ...       0.00
freq.    3108.52  E(vib)   ...       0.00
freq.    3155.39  E(vib)   ...       0.00
freq.    3164.87  E(vib)   ...       0.00
freq.    3180.68  E(vib)   ...       0.00
freq.    3190.69  E(vib)   ...       0.00
freq.    3195.09  E(vib)   ...       0.00
freq.    3201.60  E(vib)   ...       0.00
freq.    3206.79  E(vib)   ...       0.00
freq.    3213.24  E(vib)   ...       0.00
freq.    3213.58  E(vib)   ...       0.00
freq.    3230.57  E(vib)   ...       0.00
freq.    3231.01  E(vib)   ...       0.00
freq.    3234.75  E(vib)   ...       0.00
freq.    3267.37  E(vib)   ...       0.00
freq.    3274.94  E(vib)   ...       0.00

------------
INNER ENERGY
------------

The inner energy is: U= E(el) + E(ZPE) + E(vib) + E(rot) + E(trans)
    E(el)   - is the total energy from the electronic structure calculation
              = E(kin-el) + E(nuc-el) + E(el-el) + E(nuc-nuc)
    E(ZPE)  - the the zero temperature vibrational energy from the frequency calculation
    E(vib)  - the the finite temperature correction to E(ZPE) due to population
              of excited vibrational states
    E(rot)  - is the rotational thermal energy
    E(trans)- is the translational thermal energy

Summary of contributions to the inner energy U:
Electronic energy                ...  -1143.30657590 Eh
Zero point energy                ...      0.33219410 Eh     208.45 kcal/mol
Thermal vibrational correction   ...      0.01906163 Eh      11.96 kcal/mol
Thermal rotational correction    ...      0.00141627 Eh       0.89 kcal/mol
Thermal translational correction ...      0.00141627 Eh       0.89 kcal/mol
-----------------------------------------------------------------------
Total thermal energy                  -1142.95248763 Eh

Summary of corrections to the electronic energy:

Rotational constants in cm-1:     0.010490     0.007901     0.005677

                             ****ORCA TERMINATED NORMALLY****
TOTAL RUN TIME: 0 days 2 hours 4 minutes 33 seconds 284 msec
