                         Program Version 5.0.4 -  RELEASE  -
|  1> %pal nprocs 24 end
|  2> %maxcore 3500
|  3> ! PBE0 D3BJ def2-TZVP TightSCF OPTTS FREQ TightOpt
|  4> ! CPCM(dmso)
|  5> %scf
|  6> MaxIter 800
|  7> end
|  8> %geom
|  9> calc_hess True
| 10> MaxIter 800
| 11> MaxStep 0.2
| 12> end
| 13> *xyz 0 1
| 14> C       -2.914969536     -2.943513004      0.380367495
| 15> C       -2.647945583     -2.151209757      1.486612888
| 16> C       -1.459443042     -1.447178421      1.525672304
| 17> N       -0.580434810     -1.508345934      0.531181285
| 18> C       -0.825385854     -2.261968792     -0.536204497
| 19> C       -1.985953608     -3.004855673     -0.646402358
| 20> C        1.016857684     -0.354888338      0.718633743
| 21> C        1.961748645     -1.481883647      0.461292866
| 22> O        2.312611517     -2.269189642      1.304875141
| 23> O        2.333341340     -1.525508340     -0.810899765
| 24> C        3.260724699     -2.557634284     -1.159200608
| 25> H       -3.838427935     -3.507043511      0.319374468
| 26> H       -1.204819074     -0.809007322      2.364721148
| 27> H       -0.074564604     -2.262604252     -1.318123431
| 28> H       -2.154222135     -3.610196683     -1.527595913
| 29> H        0.736678727     -0.207820854      1.747813876
| 30> H        4.186143884     -2.434941053     -0.596451893
| 31> H        3.443706267     -2.440041996     -2.223825244
| 32> C        1.734725162      1.565387175     -0.651046375
| 33> C        0.600459731      0.643976814     -0.345225840
| 34> C       -0.639825686      1.406588155      0.074669723
| 35> C       -0.601885326      2.245607147      1.178426239
| 36> C       -1.728353572      2.934853645      1.604592115
| 37> C       -2.914506952      2.786658388      0.903091286
| 38> C       -2.977165899      1.963685108     -0.212758021
| 39> C       -1.841820184      1.274791098     -0.632843864
| 40> O       -1.823896004      0.457654813     -1.708173030
| 41> C       -3.038871933      0.213964623     -2.388853015
| 42> N        2.732917984      1.522520405      0.178209879
| 43> O        3.776333693      2.233600188      0.139689642
| 44> H        0.368282694      0.092909790     -1.258221044
| 45> H        0.334543437      2.355904925      1.716767035
| 46> H       -1.677668828      3.581069740      2.472592797
| 47> H       -3.806253914      3.316145204      1.219218414
| 48> H       -3.910279364      1.861231320     -0.750182661
| 49> H       -3.437324796      1.131638224     -2.830745252
| 50> H       -3.785051563     -0.221820164     -1.718347692
| 51> H       -2.802907521     -0.495999174     -3.178970853
| 52> O        2.650853748      0.633552272      1.165629822
| 53> H        2.830230096     -3.537144208     -0.950728726
| 54> C        1.705669471      2.501332996     -1.794840789
| 55> H        1.137372977      3.449180011     -1.537184865
| 56> H        2.758132677      2.777483200     -2.078994734
| 57> H        1.183520768      2.008915589     -2.666747433
| 58> H       -3.346585530     -2.072026131      2.309260339
| 59> *
| 60>
| 61>                          ****END OF INPUT****
 Total Charge           Charge          ....    0
 Multiplicity           Mult            ....    1
 Number of Electrons    NEL             ....  182
Dispersion correction           -0.057477062
FINAL SINGLE POINT ENERGY     -1182.592592279643
Dispersion correction            ... done
Dispersion correction in the Hessian             ... done   (      0.7 sec)
Dispersion correction           -0.057486396
FINAL SINGLE POINT ENERGY     -1182.594991520290
Dispersion correction            ... done
Dispersion correction           -0.057557053
FINAL SINGLE POINT ENERGY     -1182.595014773507
FINAL SINGLE POINT ENERGY     -1182.595014675828
FINAL SINGLE POINT ENERGY     -1182.595012824629
FINAL SINGLE POINT ENERGY     -1182.595011895226
FINAL SINGLE POINT ENERGY     -1182.595008448093
FINAL SINGLE POINT ENERGY     -1182.595007657435
FINAL SINGLE POINT ENERGY     -1182.594997975667
FINAL SINGLE POINT ENERGY     -1182.594999841875
FINAL SINGLE POINT ENERGY     -1182.595121371996
FINAL SINGLE POINT ENERGY     -1182.595122957857
FINAL SINGLE POINT ENERGY     -1182.595131968872
FINAL SINGLE POINT ENERGY     -1182.595143951183
FINAL SINGLE POINT ENERGY     -1182.595146784436
FINAL SINGLE POINT ENERGY     -1182.595149941842
FINAL SINGLE POINT ENERGY     -1182.595155891159
Dispersion correction           -0.057551841
FINAL SINGLE POINT ENERGY     -1182.595154013367
Dispersion correction            ... done
Dispersion correction           -0.057550424
FINAL SINGLE POINT ENERGY     -1182.595154182502
Dispersion correction            ... done
                    ***********************HURRAY********************

CARTESIAN COORDINATES (ANGSTROEM)
---------------------------------
  C     -2.919316   -2.923278    0.388411
  C     -2.643763   -2.140896    1.499689
  C     -1.451312   -1.443729    1.539536
  N     -0.576349   -1.502148    0.541163
  C     -0.828764   -2.247557   -0.530207
  C     -1.994018   -2.983039   -0.641675
  C      1.023174   -0.345197    0.725651
  C      1.966930   -1.472870    0.468106
  O      2.319186   -2.259460    1.311717
  O      2.335992   -1.517570   -0.804850
  C      3.263714   -2.549056   -1.153901
  H     -3.846811   -3.479888    0.325725
  H     -1.190553   -0.812472    2.381912
  H     -0.080565   -2.247135   -1.314606
  H     -2.168825   -3.581216   -1.526482
  H      0.742760   -0.197494    1.754626
  H      4.190044   -2.424785   -0.592985
  H      3.444623   -2.432273   -2.218964
  C      1.728225    1.579949   -0.640187
  C      0.600513    0.648973   -0.341124
  C     -0.649090    1.399544    0.071027
  C     -0.630206    2.227914    1.183458
  C     -1.767817    2.900827    1.605741
  C     -2.945855    2.746913    0.891706
  C     -2.989235    1.935371   -0.233317
  C     -1.842561    1.263396   -0.649948
  O     -1.805008    0.459745   -1.735089
  C     -3.014502    0.193811   -2.417538
  N      2.733985    1.526069    0.175748
  O      3.778303    2.234237    0.109397
  H      0.378211    0.092497   -1.253284
  H      0.299530    2.341213    1.732692
  H     -1.732525    3.538289    2.480937
  H     -3.846234    3.263245    1.205124
  H     -3.916106    1.828792   -0.780658
  H     -3.432740    1.104958   -2.854495
  H     -3.750684   -0.261837   -1.749110
  H     -2.763264   -0.506487   -3.211549
  O      2.660347    0.641891    1.168192
  H      2.834720   -3.528838   -0.943685
  C      1.719390    2.525821   -1.778094
  H      1.845149    3.558727   -1.440540
  H      2.533295    2.312265   -2.478530
  H      0.773342    2.450429   -2.315006
  H     -3.339040   -2.063823    2.325389

 Multiplicity           Mult            ....    1
 Number of Electrons    NEL             ....  182
 Basis Dimension        Dim             ....  895

ORBITAL ENERGIES
----------------

  NO   OCC          E(Eh)            E(eV)
   0   2.0000     -19.266822      -524.2769
   1   2.0000     -19.245381      -523.6935
   2   2.0000     -19.205257      -522.6016
   3   2.0000     -19.200769      -522.4795
   4   2.0000     -19.174315      -521.7596
   5   2.0000     -14.546484      -395.8300
   6   2.0000     -14.443673      -393.0323
   7   2.0000     -10.365587      -282.0620
   8   2.0000     -10.323191      -280.9083
   9   2.0000     -10.291214      -280.0382
  10   2.0000     -10.285852      -279.8923
  11   2.0000     -10.285668      -279.8873
  12   2.0000     -10.271445      -279.5002
  13   2.0000     -10.266705      -279.3712
  14   2.0000     -10.260536      -279.2034
  15   2.0000     -10.258311      -279.1428
  16   2.0000     -10.253963      -279.0245
  17   2.0000     -10.251098      -278.9466
  18   2.0000     -10.250984      -278.9435
  19   2.0000     -10.238936      -278.6156
  20   2.0000     -10.229854      -278.3685
  21   2.0000     -10.229712      -278.3646
  22   2.0000     -10.226119      -278.2668
  23   2.0000     -10.221927      -278.1528
  24   2.0000     -10.218146      -278.0499
  25   2.0000      -1.182404       -32.1748
  26   2.0000      -1.155344       -31.4385
  27   2.0000      -1.108516       -30.1642
  28   2.0000      -1.061237       -28.8777
  29   2.0000      -1.020335       -27.7647
  30   2.0000      -1.009456       -27.4687
  31   2.0000      -0.902005       -24.5448
  32   2.0000      -0.873948       -23.7813
  33   2.0000      -0.857034       -23.3211
  34   2.0000      -0.826880       -22.5006
  35   2.0000      -0.816168       -22.2091
  36   2.0000      -0.792427       -21.5630
  37   2.0000      -0.778301       -21.1786
  38   2.0000      -0.747574       -20.3425
  39   2.0000      -0.732326       -19.9276
  40   2.0000      -0.719322       -19.5738
  41   2.0000      -0.695570       -18.9274
  42   2.0000      -0.681492       -18.5443
  43   2.0000      -0.668572       -18.1928
  44   2.0000      -0.625557       -17.0223
  45   2.0000      -0.613655       -16.6984
  46   2.0000      -0.597590       -16.2613
  47   2.0000      -0.586157       -15.9502
  48   2.0000      -0.560841       -15.2613
  49   2.0000      -0.559366       -15.2211
  50   2.0000      -0.545592       -14.8463
  51   2.0000      -0.528319       -14.3763
  52   2.0000      -0.526146       -14.3172
  53   2.0000      -0.516690       -14.0598
  54   2.0000      -0.512469       -13.9450
  55   2.0000      -0.503762       -13.7081
  56   2.0000      -0.499491       -13.5918
  57   2.0000      -0.496577       -13.5126
  58   2.0000      -0.493324       -13.4240
  59   2.0000      -0.490894       -13.3579
  60   2.0000      -0.481015       -13.0891
  61   2.0000      -0.464211       -12.6318
  62   2.0000      -0.460758       -12.5379
  63   2.0000      -0.457744       -12.4558
  64   2.0000      -0.451547       -12.2872
  65   2.0000      -0.444868       -12.1055
  66   2.0000      -0.432887       -11.7794
  67   2.0000      -0.430170       -11.7055
  68   2.0000      -0.422346       -11.4926
  69   2.0000      -0.420698       -11.4478
  70   2.0000      -0.409705       -11.1487
  71   2.0000      -0.407571       -11.0906
  72   2.0000      -0.400008       -10.8848
  73   2.0000      -0.397239       -10.8094
  74   2.0000      -0.391975       -10.6662
  75   2.0000      -0.384580       -10.4649
  76   2.0000      -0.380564       -10.3557
  77   2.0000      -0.367686       -10.0053
  78   2.0000      -0.352063        -9.5801
  79   2.0000      -0.346318        -9.4238
  80   2.0000      -0.341633        -9.2963
  81   2.0000      -0.333387        -9.0719
  82   2.0000      -0.327335        -8.9072
  83   2.0000      -0.317832        -8.6486
  84   2.0000      -0.300358        -8.1732
  85   2.0000      -0.299652        -8.1539
  86   2.0000      -0.292724        -7.9654
  87   2.0000      -0.271422        -7.3858
  88   2.0000      -0.265570        -7.2265
  89   2.0000      -0.241061        -6.5596
  90   2.0000      -0.212660        -5.7868
  91   0.0000      -0.056116        -1.5270
  92   0.0000      -0.036084        -0.9819
  93   0.0000      -0.031621        -0.8605
  94   0.0000      -0.017342        -0.4719
  95   0.0000      -0.000564        -0.0154

MULLIKEN ATOMIC CHARGES
-----------------------
   0 C :   -0.110334
   1 C :   -0.148125
   2 C :   -0.029969
   3 N :   -0.089806
   4 C :   -0.021159
   5 C :   -0.141748
   6 C :    0.018457
   7 C :    0.335971
   8 O :   -0.394885
   9 O :   -0.217259
  10 C :   -0.273862
  11 H :    0.176157
  12 H :    0.177097
  13 H :    0.186633
  14 H :    0.176311
  15 H :    0.181907
  16 H :    0.158336
  17 H :    0.163810
  18 C :   -0.064316
  19 C :    0.099987
  20 C :   -0.059017
  21 C :   -0.173972
  22 C :   -0.203089
  23 C :   -0.138296
  24 C :   -0.310717
  25 C :    0.308639
  26 O :   -0.267294
  27 C :   -0.278233
  28 N :    0.467747
  29 O :   -0.580759
  30 H :    0.130640
  31 H :    0.158820
  32 H :    0.145826
  33 H :    0.151855
  34 H :    0.163111
  35 H :    0.158419
  36 H :    0.151474
  37 H :    0.159383
  38 O :   -0.478606
  39 H :    0.155851
  40 C :   -0.474467
  41 H :    0.145358
  42 H :    0.149931
  43 H :    0.156897
  44 H :    0.177297
Sum of atomic charges:   -0.0000000

LOEWDIN ATOMIC CHARGES
----------------------
   0 C :   -0.086214
   1 C :   -0.120632
   2 C :   -0.151876
   3 N :    0.267836
   4 C :   -0.156017
   5 C :   -0.119639
   6 C :   -0.066474
   7 C :   -0.529520
   8 O :    0.079167
   9 O :    0.277605
  10 C :   -0.300031
  11 H :    0.165263
  12 H :    0.161397
  13 H :    0.160719
  14 H :    0.165551
  15 H :    0.168012
  16 H :    0.121207
  17 H :    0.123211
  18 C :   -0.251089
  19 C :   -0.181453
  20 C :   -0.103367
  21 C :   -0.104666
  22 C :   -0.164884
  23 C :   -0.145753
  24 C :   -0.138972
  25 C :   -0.235483
  26 O :    0.252989
  27 C :   -0.328915
  28 N :   -0.010515
  29 O :   -0.260899
  30 H :    0.186303
  31 H :    0.163155
  32 H :    0.151961
  33 H :    0.154450
  34 H :    0.160304
  35 H :    0.118017
  36 H :    0.117393
  37 H :    0.122028
  38 O :   -0.090589
  39 H :    0.120246
  40 C :   -0.273160
  41 H :    0.137656
  42 H :    0.138195
  43 H :    0.142200
  44 H :    0.165282

  Mayer bond orders larger than 0.100000
B(  0-C ,  1-C ) :   1.4145 B(  0-C ,  5-C ) :   1.4208 B(  0-C , 11-H ) :   0.9475
B(  1-C ,  2-C ) :   1.4360 B(  1-C , 44-H ) :   0.9524 B(  2-C ,  3-N ) :   1.3675
B(  2-C , 12-H ) :   0.9356 B(  3-N ,  4-C ) :   1.3190 B(  3-N ,  6-C ) :   0.3408
B(  4-C ,  5-C ) :   1.4410 B(  4-C , 13-H ) :   0.9318 B(  5-C , 14-H ) :   0.9513
B(  6-C ,  7-C ) :   0.9573 B(  6-C , 15-H ) :   0.9328 B(  6-C , 19-C ) :   1.0361
B(  6-C , 38-O ) :   0.3402 B(  7-C ,  8-O ) :   2.0246 B(  7-C ,  9-O ) :   1.2376
B(  7-C , 38-O ) :   0.1129 B(  9-O , 10-C ) :   0.8904 B( 10-C , 16-H ) :   0.9652
B( 10-C , 17-H ) :   0.9652 B( 10-C , 39-H ) :   0.9666 B( 18-C , 19-C ) :   0.9926
B( 18-C , 28-N ) :   1.6273 B( 18-C , 29-O ) :   0.1691 B( 18-C , 38-O ) :   0.1087
B( 18-C , 40-C ) :   0.9750 B( 19-C , 20-C ) :   0.7932 B( 19-C , 30-H ) :   0.9434
B( 20-C , 21-C ) :   1.3695 B( 20-C , 25-C ) :   1.2774 B( 21-C , 22-C ) :   1.4024
B( 21-C , 31-H ) :   0.9744 B( 22-C , 23-C ) :   1.3954 B( 22-C , 32-H ) :   0.9831
B( 23-C , 24-C ) :   1.3967 B( 23-C , 33-H ) :   0.9677 B( 24-C , 25-C ) :   1.3792
B( 24-C , 34-H ) :   0.9613 B( 25-C , 26-O ) :   1.0824 B( 26-O , 27-C ) :   0.9362
B( 27-C , 35-H ) :   0.9576 B( 27-C , 36-H ) :   0.9646 B( 27-C , 37-H ) :   0.9652
B( 28-N , 29-O ) :   1.3190 B( 28-N , 38-O ) :   1.0356 B( 40-C , 41-H ) :   0.9567
B( 40-C , 42-H ) :   0.9596 B( 40-C , 43-H ) :   0.9767

Dispersion correction           -0.057548485
FINAL SINGLE POINT ENERGY     -1182.595154523935

DIPOLE MOMENT
-------------
                                X             Y             Z
Electronic contribution:      5.63315      -1.74897       7.70484
Nuclear contribution   :    -12.34823      -1.42763      -9.82799
                        -----------------------------------------
Total Dipole Moment    :     -6.71509      -3.17660      -2.12315
                        -----------------------------------------
Magnitude (a.u.)       :      7.72599
Magnitude (Debye)      :     19.63791

Dispersion correction in the Hessian             ... done   (      0.6 sec)

VIBRATIONAL FREQUENCIES
-----------------------

Scaling factor for frequencies =  1.000000000  (already applied!)

   0:         0.00 cm**-1
   1:         0.00 cm**-1
   2:         0.00 cm**-1
   3:         0.00 cm**-1
   4:         0.00 cm**-1
   5:         0.00 cm**-1
   6:      -549.65 cm**-1 ***imaginary mode***
   7:        17.86 cm**-1
   8:        34.60 cm**-1
   9:        39.78 cm**-1
  10:        44.40 cm**-1
  11:        54.06 cm**-1
  12:        60.76 cm**-1
  13:        69.91 cm**-1
  14:        79.00 cm**-1
  15:        88.53 cm**-1
  16:       102.57 cm**-1
  17:       117.91 cm**-1
  18:       141.50 cm**-1
  19:       155.26 cm**-1
  20:       156.43 cm**-1
  21:       172.71 cm**-1
  22:       190.16 cm**-1
  23:       200.26 cm**-1
  24:       213.86 cm**-1
  25:       235.61 cm**-1
  26:       247.34 cm**-1
  27:       253.09 cm**-1
  28:       287.17 cm**-1
  29:       293.97 cm**-1
  30:       316.11 cm**-1
  31:       328.38 cm**-1
  32:       362.10 cm**-1
  33:       390.51 cm**-1
  34:       395.22 cm**-1
  35:       449.09 cm**-1
  36:       483.61 cm**-1
  37:       494.43 cm**-1
  38:       556.89 cm**-1
  39:       581.27 cm**-1
  40:       602.98 cm**-1
  41:       621.65 cm**-1
  42:       633.24 cm**-1
  43:       644.72 cm**-1
  44:       659.47 cm**-1
  45:       680.89 cm**-1
  46:       710.89 cm**-1
  47:       716.61 cm**-1
  48:       724.12 cm**-1
  49:       760.49 cm**-1
  50:       768.16 cm**-1
  51:       777.01 cm**-1
  52:       779.87 cm**-1
  53:       808.66 cm**-1
  54:       839.02 cm**-1
  55:       873.13 cm**-1
  56:       884.20 cm**-1
  57:       892.65 cm**-1
  58:       901.61 cm**-1
  59:       966.97 cm**-1
  60:       975.64 cm**-1
  61:       979.71 cm**-1
  62:       996.02 cm**-1
  63:      1013.75 cm**-1
  64:      1037.67 cm**-1
  65:      1038.13 cm**-1
  66:      1041.25 cm**-1
  67:      1060.41 cm**-1
  68:      1070.85 cm**-1
  69:      1083.60 cm**-1
  70:      1084.36 cm**-1
  71:      1095.32 cm**-1
  72:      1101.42 cm**-1
  73:      1113.25 cm**-1
  74:      1133.85 cm**-1
  75:      1146.16 cm**-1
  76:      1168.14 cm**-1
  77:      1170.73 cm**-1
  78:      1171.79 cm**-1
  79:      1174.16 cm**-1
  80:      1194.98 cm**-1
  81:      1207.10 cm**-1
  82:      1213.12 cm**-1
  83:      1227.39 cm**-1
  84:      1237.55 cm**-1
  85:      1246.19 cm**-1
  86:      1267.50 cm**-1
  87:      1291.66 cm**-1
  88:      1301.48 cm**-1
  89:      1307.89 cm**-1
  90:      1322.98 cm**-1
  91:      1342.74 cm**-1
  92:      1358.98 cm**-1
  93:      1377.39 cm**-1
  94:      1387.72 cm**-1
  95:      1397.23 cm**-1
  96:      1417.78 cm**-1
  97:      1444.42 cm**-1
  98:      1465.28 cm**-1
  99:      1466.08 cm**-1
 100:      1466.84 cm**-1
 101:      1470.18 cm**-1
 102:      1472.79 cm**-1
 103:      1473.86 cm**-1
 104:      1482.97 cm**-1
 105:      1494.95 cm**-1
 106:      1497.84 cm**-1
 107:      1528.95 cm**-1
 108:      1536.93 cm**-1
 109:      1648.96 cm**-1
 110:      1649.25 cm**-1
 111:      1663.21 cm**-1
 112:      1667.04 cm**-1
 113:      1698.25 cm**-1
 114:      1789.87 cm**-1
 115:      3036.50 cm**-1
 116:      3036.69 cm**-1
 117:      3073.16 cm**-1
 118:      3091.79 cm**-1
 119:      3102.94 cm**-1
 120:      3108.16 cm**-1
 121:      3143.79 cm**-1
 122:      3156.94 cm**-1
 123:      3164.70 cm**-1
 124:      3181.30 cm**-1
 125:      3191.76 cm**-1
 126:      3195.19 cm**-1
 127:      3200.43 cm**-1
 128:      3206.24 cm**-1
 129:      3213.27 cm**-1
 130:      3213.41 cm**-1
 131:      3230.14 cm**-1
 132:      3230.87 cm**-1
 133:      3234.41 cm**-1
 134:      3277.61 cm**-1

IR SPECTRUM
-----------

 Mode   freq       eps      Int      T**2         TX        TY        TZ
       cm**-1   L/(mol*cm) km/mol    a.u.
----------------------------------------------------------------------------
  7:     17.86   0.000152    0.77  0.002651  (-0.034125  0.010609  0.037062)
  8:     34.60   0.000286    1.44  0.002578  (-0.026170  0.042973  0.006844)
  9:     39.78   0.000038    0.19  0.000297  (-0.007024  0.005826  0.014603)
 10:     44.40   0.000183    0.92  0.001285  ( 0.009282 -0.034570 -0.001974)
 11:     54.06   0.000284    1.43  0.001638  ( 0.024547  0.031562  0.006244)
 12:     60.76   0.000694    3.51  0.003566  (-0.024766 -0.053695  0.008344)
 13:     69.91   0.000411    2.08  0.001837  ( 0.027189  0.021069  0.025562)
 14:     79.00   0.000431    2.18  0.001703  ( 0.036048  0.016886  0.010867)
 15:     88.53   0.003642   18.41  0.012840  ( 0.009603 -0.094420 -0.061906)
 16:    102.57   0.001591    8.04  0.004841  ( 0.008736  0.055208 -0.041434)
 17:    117.91   0.000378    1.91  0.001000  (-0.021986  0.022693 -0.001393)
 18:    141.50   0.000599    3.03  0.001322  (-0.007964 -0.035420  0.001867)
 19:    155.26   0.001759    8.89  0.003536  ( 0.032747  0.047644  0.013913)
 20:    156.43   0.000601    3.04  0.001198  (-0.032210 -0.007398  0.010301)
 21:    172.71   0.000512    2.59  0.000926  (-0.015634 -0.016153  0.020507)
 22:    190.16   0.004065   20.54  0.006671  (-0.066961 -0.046381 -0.006021)
 23:    200.26   0.002719   13.74  0.004237  ( 0.041919  0.044299 -0.022741)
 24:    213.86   0.000010    0.05  0.000015  (-0.000122 -0.003199 -0.002173)
 25:    235.61   0.000643    3.25  0.000851  (-0.019966 -0.021262 -0.000700)
 26:    247.34   0.000510    2.58  0.000643  (-0.009853  0.023119 -0.003364)
 27:    253.09   0.003406   17.21  0.004199  (-0.016981 -0.059543  0.019113)
 28:    287.17   0.001590    8.03  0.001727  ( 0.029757 -0.026488 -0.011844)
 29:    293.97   0.000143    0.72  0.000152  ( 0.007458  0.005664  0.008002)
 30:    316.11   0.003671   18.55  0.003624  (-0.004297  0.020367  0.056484)
 31:    328.38   0.002182   11.03  0.002073  (-0.003550 -0.001870 -0.045358)
 32:    362.10   0.000798    4.03  0.000688  ( 0.014725  0.014492  0.016152)
 33:    390.51   0.005381   27.19  0.004300  (-0.065186 -0.000452  0.007105)
 34:    395.22   0.000080    0.41  0.000063  (-0.007622 -0.001311  0.001905)
 35:    449.09   0.001762    8.90  0.001224  ( 0.025989 -0.017400  0.015684)
 36:    483.61   0.001856    9.38  0.001197  ( 0.034365  0.003535 -0.001967)
 37:    494.43   0.001300    6.57  0.000821  (-0.018072 -0.008441  0.020562)
 38:    556.89   0.001736    8.77  0.000973  ( 0.009847  0.028056 -0.009419)
 39:    581.27   0.002857   14.44  0.001534  (-0.021379  0.022447  0.023932)
 40:    602.98   0.004713   23.82  0.002439  (-0.035158 -0.033811  0.007757)
 41:    621.65   0.002164   10.94  0.001087  (-0.017980  0.023145 -0.015085)
 42:    633.24   0.006267   31.67  0.003088  ( 0.010871  0.053079 -0.012364)
 43:    644.72   0.001574    7.95  0.000762  (-0.011206  0.025219 -0.000554)
 44:    659.47   0.000172    0.87  0.000081  (-0.006780 -0.005873  0.000986)
 45:    680.89   0.001275    6.44  0.000584  (-0.021221 -0.008365  0.008005)
 46:    710.89   0.019215   97.10  0.008435  ( 0.039735 -0.071579  0.041621)
 47:    716.61   0.000520    2.63  0.000226  (-0.000803 -0.009075 -0.011970)
 48:    724.12   0.010826   54.71  0.004666  (-0.028438  0.061776  0.006375)
 49:    760.49   0.005764   29.13  0.002365  (-0.034150 -0.028867 -0.019129)
 50:    768.16   0.014718   74.38  0.005979  ( 0.032281  0.052191 -0.047044)
 51:    777.01   0.016176   81.75  0.006497  ( 0.000219 -0.070745  0.038624)
 52:    779.87   0.000166    0.84  0.000067  (-0.005993  0.001819  0.005225)
 53:    808.66   0.003972   20.07  0.001533  ( 0.011544 -0.019250 -0.032075)
 54:    839.02   0.002079   10.50  0.000773  (-0.004755  0.013137 -0.024040)
 55:    873.13   0.003627   18.33  0.001296  (-0.003541  0.030807 -0.018292)
 56:    884.20   0.006547   33.09  0.002311  (-0.024595  0.038432 -0.015123)
 57:    892.65   0.000013    0.07  0.000005  ( 0.000987 -0.000872  0.001726)
 58:    901.61   0.006131   30.98  0.002122  (-0.004709  0.021429 -0.040505)
 59:    966.97   0.004025   20.34  0.001299  ( 0.000705 -0.024827  0.026115)
 60:    975.64   0.003746   18.93  0.001198  ( 0.008978 -0.019833  0.026913)
 61:    979.71   0.004410   22.29  0.001405  ( 0.004891 -0.022026  0.029927)
 62:    996.02   0.000033    0.17  0.000010  ( 0.002797  0.001446  0.000642)
 63:   1013.75   0.000035    0.17  0.000011  ( 0.000945 -0.000267 -0.003108)
 64:   1037.67   0.001232    6.23  0.000370  ( 0.015399  0.010338  0.005148)
 65:   1038.13   0.010936   55.27  0.003287  ( 0.043707  0.036421 -0.007109)
 66:   1041.25   0.000016    0.08  0.000005  (-0.001670  0.001367 -0.000404)
 67:   1060.41   0.000078    0.40  0.000023  ( 0.003936 -0.000737  0.002652)
 68:   1070.85   0.005019   25.36  0.001463  (-0.035518 -0.007517 -0.012023)
 69:   1083.60   0.012034   60.81  0.003466  (-0.002179  0.036007  0.046522)
 70:   1084.36   0.021220  107.24  0.006107  (-0.067840  0.033318  0.019860)
 71:   1095.32   0.010518   53.16  0.002997  (-0.030241 -0.045615  0.001227)
 72:   1101.42   0.005428   27.43  0.001538  ( 0.005058  0.003335 -0.038744)
 73:   1113.25   0.003308   16.72  0.000927  ( 0.018198 -0.007749  0.023151)
 74:   1133.85   0.012005   60.67  0.003304  (-0.018382 -0.054013 -0.006986)
 75:   1146.16   0.039599  200.12  0.010781  (-0.039046  0.057397 -0.077217)
 76:   1168.14   0.000679    3.43  0.000182  (-0.004436  0.004560  0.011875)
 77:   1170.73   0.000254    1.28  0.000068  (-0.005260 -0.005634  0.002877)
 78:   1171.79   0.000465    2.35  0.000124  ( 0.008767  0.005912  0.003479)
 79:   1174.16   0.002144   10.84  0.000570  ( 0.018232  0.000518  0.015402)
 80:   1194.98   0.001162    5.87  0.000303  ( 0.007086 -0.001838  0.015804)
 81:   1207.10   0.000286    1.45  0.000074  (-0.003228 -0.000316  0.007963)
 82:   1213.12   0.001844    9.32  0.000474  (-0.019711 -0.008569 -0.003525)
 83:   1227.39   0.003729   18.85  0.000948  ( 0.006266  0.019594 -0.022913)
 84:   1237.55   0.006083   30.74  0.001534  ( 0.031679  0.022380  0.005426)
 85:   1246.19   0.001841    9.30  0.000461  ( 0.019619 -0.007158 -0.004979)
 86:   1267.50   0.016505   83.41  0.004064  (-0.049595 -0.024503 -0.031680)
 87:   1291.66   0.103127  521.16  0.024916  ( 0.060346  0.130436  0.065272)
 88:   1301.48   0.038088  192.48  0.009133  ( 0.056153  0.040016  0.066167)
 89:   1307.89   0.081289  410.80  0.019396  (-0.117812 -0.014810  0.072779)
 90:   1322.98   0.026627  134.56  0.006281  (-0.053713  0.020815  0.054428)
 91:   1342.74   0.002184   11.04  0.000508  (-0.002010  0.009725  0.020224)
 92:   1358.98   0.022259  112.49  0.005111  (-0.061555 -0.003035  0.036237)
 93:   1377.39   0.004206   21.26  0.000953  (-0.027865 -0.002443  0.013059)
 94:   1387.72   0.000653    3.30  0.000147  ( 0.008670  0.002486  0.008090)
 95:   1397.23   0.018631   94.15  0.004161  (-0.001841  0.005676  0.064230)
 96:   1417.78   0.012223   61.77  0.002690  ( 0.027519  0.006627  0.043464)
 97:   1444.42   0.003546   17.92  0.000766  (-0.013145  0.017969  0.016445)
 98:   1465.28   0.001536    7.76  0.000327  ( 0.008983 -0.008989 -0.012869)
 99:   1466.08   0.003957   20.00  0.000842  ( 0.020067  0.018976  0.008915)
100:   1466.84   0.004723   23.87  0.001005  (-0.000698 -0.015557 -0.027608)
101:   1470.18   0.013729   69.38  0.002914  (-0.030930  0.023148  0.037705)
102:   1472.79   0.003225   16.30  0.000683  (-0.003498 -0.024871  0.007242)
103:   1473.86   0.001706    8.62  0.000361  ( 0.006623 -0.012207  0.012973)
104:   1482.97   0.003958   20.00  0.000833  ( 0.001647 -0.011308 -0.026502)
105:   1494.95   0.013651   68.99  0.002850  (-0.008397  0.017902  0.049585)
106:   1497.84   0.010793   54.54  0.002249  ( 0.011710  0.027146  0.037075)
107:   1528.95   0.000764    3.86  0.000156  ( 0.012194 -0.001147 -0.002429)
108:   1536.93   0.033891  171.27  0.006881  ( 0.009469  0.048828  0.066388)
109:   1648.96   0.003469   17.53  0.000656  ( 0.022900  0.000817  0.011462)
110:   1649.25   0.004511   22.80  0.000854  ( 0.010843  0.011671  0.024490)
111:   1663.21   0.014741   74.49  0.002766  (-0.004881 -0.029722 -0.043110)
112:   1667.04   0.011990   60.59  0.002245  (-0.037479 -0.028939  0.001556)
113:   1698.25   0.074047  374.20  0.013607  ( 0.104771 -0.008096  0.050637)
114:   1789.87   0.110030  556.05  0.019184  (-0.030754  0.080345 -0.108548)
115:   3036.50   0.005241   26.49  0.000539  ( 0.009111  0.015999 -0.014131)
116:   3036.69   0.013509   68.27  0.001388  ( 0.027432  0.003081  0.025025)
117:   3073.16   0.006102   30.84  0.000620  ( 0.016006 -0.017194 -0.008233)
118:   3091.79   0.004461   22.54  0.000450  (-0.009601  0.015924  0.010221)
119:   3102.94   0.000409    2.06  0.000041  (-0.004230  0.004803 -0.000349)
120:   3108.16   0.007976   40.31  0.000801  ( 0.004146  0.021332 -0.018125)
121:   3143.79   0.002203   11.13  0.000219  (-0.013519 -0.004639 -0.003795)
122:   3156.94   0.003763   19.02  0.000372  ( 0.014782  0.011835  0.003661)
123:   3164.70   0.003824   19.32  0.000377  (-0.005679  0.012312  0.013899)
124:   3181.30   0.000683    3.45  0.000067  ( 0.007681 -0.000868  0.002694)
125:   3191.76   0.002082   10.52  0.000204  ( 0.001624  0.002882 -0.013878)
126:   3195.19   0.001287    6.51  0.000126  ( 0.010568 -0.003734 -0.000326)
127:   3200.43   0.000700    3.54  0.000068  (-0.006803 -0.002774  0.003775)
128:   3206.24   0.000938    4.74  0.000091  ( 0.008284  0.004736  0.000458)
129:   3213.27   0.000060    0.30  0.000006  ( 0.000799 -0.001147 -0.001961)
130:   3213.41   0.003035   15.34  0.000295  ( 0.002815 -0.010990 -0.012885)
131:   3230.14   0.000167    0.84  0.000016  ( 0.000010  0.001779  0.003602)
132:   3230.87   0.000525    2.65  0.000051  (-0.006372  0.000298 -0.003160)
133:   3234.41   0.000336    1.70  0.000032  (-0.004686 -0.003150  0.000719)
134:   3277.61   0.000342    1.73  0.000033  (-0.003250 -0.004540 -0.001172)

--------------------------
THERMOCHEMISTRY AT 298.15K
--------------------------

Temperature         ... 298.15 K
Pressure            ... 1.00 atm
Total Mass          ... 344.37 AMU

Throughout the following assumptions are being made:
  (1) The electronic state is orbitally nondegenerate
  (2) There are no thermally accessible electronically excited states
  (3) Hindered rotations indicated by low frequency modes are not
      treated as such but are treated as vibrations and this may
      cause some error
  (4) All equations used are the standard statistical mechanics
      equations for an ideal gas
  (5) All vibrations are strictly harmonic

freq.      17.86  E(vib)   ...       0.57
freq.      34.60  E(vib)   ...       0.54
freq.      39.78  E(vib)   ...       0.54
freq.      44.40  E(vib)   ...       0.53
freq.      54.06  E(vib)   ...       0.52
freq.      60.76  E(vib)   ...       0.51
freq.      69.91  E(vib)   ...       0.50
freq.      79.00  E(vib)   ...       0.49
freq.      88.53  E(vib)   ...       0.47
freq.     102.57  E(vib)   ...       0.46
freq.     117.91  E(vib)   ...       0.44
freq.     141.50  E(vib)   ...       0.41
freq.     155.26  E(vib)   ...       0.40
freq.     156.43  E(vib)   ...       0.40
freq.     172.71  E(vib)   ...       0.38
freq.     190.16  E(vib)   ...       0.36
freq.     200.26  E(vib)   ...       0.35
freq.     213.86  E(vib)   ...       0.34
freq.     235.61  E(vib)   ...       0.32
freq.     247.34  E(vib)   ...       0.31
freq.     253.09  E(vib)   ...       0.30
freq.     287.17  E(vib)   ...       0.27
freq.     293.97  E(vib)   ...       0.27
freq.     316.11  E(vib)   ...       0.25
freq.     328.38  E(vib)   ...       0.24
freq.     362.10  E(vib)   ...       0.22
freq.     390.51  E(vib)   ...       0.20
freq.     395.22  E(vib)   ...       0.20
freq.     449.09  E(vib)   ...       0.17
freq.     483.61  E(vib)   ...       0.15
freq.     494.43  E(vib)   ...       0.14
freq.     556.89  E(vib)   ...       0.12
freq.     581.27  E(vib)   ...       0.11
freq.     602.98  E(vib)   ...       0.10
freq.     621.65  E(vib)   ...       0.09
freq.     633.24  E(vib)   ...       0.09
freq.     644.72  E(vib)   ...       0.09
freq.     659.47  E(vib)   ...       0.08
freq.     680.89  E(vib)   ...       0.08
freq.     710.89  E(vib)   ...       0.07
freq.     716.61  E(vib)   ...       0.07
freq.     724.12  E(vib)   ...       0.06
freq.     760.49  E(vib)   ...       0.06
freq.     768.16  E(vib)   ...       0.06
freq.     777.01  E(vib)   ...       0.05
freq.     779.87  E(vib)   ...       0.05
freq.     808.66  E(vib)   ...       0.05
freq.     839.02  E(vib)   ...       0.04
freq.     873.13  E(vib)   ...       0.04
freq.     884.20  E(vib)   ...       0.04
freq.     892.65  E(vib)   ...       0.03
freq.     901.61  E(vib)   ...       0.03
freq.     966.97  E(vib)   ...       0.03
freq.     975.64  E(vib)   ...       0.03
freq.     979.71  E(vib)   ...       0.03
freq.     996.02  E(vib)   ...       0.02
freq.    1013.75  E(vib)   ...       0.02
freq.    1037.67  E(vib)   ...       0.02
freq.    1038.13  E(vib)   ...       0.02
freq.    1041.25  E(vib)   ...       0.02
freq.    1060.41  E(vib)   ...       0.02
freq.    1070.85  E(vib)   ...       0.02
freq.    1083.60  E(vib)   ...       0.02
freq.    1084.36  E(vib)   ...       0.02
freq.    1095.32  E(vib)   ...       0.02
freq.    1101.42  E(vib)   ...       0.02
freq.    1113.25  E(vib)   ...       0.01
freq.    1133.85  E(vib)   ...       0.01
freq.    1146.16  E(vib)   ...       0.01
freq.    1168.14  E(vib)   ...       0.01
freq.    1170.73  E(vib)   ...       0.01
freq.    1171.79  E(vib)   ...       0.01
freq.    1174.16  E(vib)   ...       0.01
freq.    1194.98  E(vib)   ...       0.01
freq.    1207.10  E(vib)   ...       0.01
freq.    1213.12  E(vib)   ...       0.01
freq.    1227.39  E(vib)   ...       0.01
freq.    1237.55  E(vib)   ...       0.01
freq.    1246.19  E(vib)   ...       0.01
freq.    1267.50  E(vib)   ...       0.01
freq.    1291.66  E(vib)   ...       0.01
freq.    1301.48  E(vib)   ...       0.01
freq.    1307.89  E(vib)   ...       0.01
freq.    1322.98  E(vib)   ...       0.01
freq.    1342.74  E(vib)   ...       0.01
freq.    1358.98  E(vib)   ...       0.01
freq.    1377.39  E(vib)   ...       0.01
freq.    1387.72  E(vib)   ...       0.00
freq.    1397.23  E(vib)   ...       0.00
freq.    1417.78  E(vib)   ...       0.00
freq.    1444.42  E(vib)   ...       0.00
freq.    1465.28  E(vib)   ...       0.00
freq.    1466.08  E(vib)   ...       0.00
freq.    1466.84  E(vib)   ...       0.00
freq.    1470.18  E(vib)   ...       0.00
freq.    1472.79  E(vib)   ...       0.00
freq.    1473.86  E(vib)   ...       0.00
freq.    1482.97  E(vib)   ...       0.00
freq.    1494.95  E(vib)   ...       0.00
freq.    1497.84  E(vib)   ...       0.00
freq.    1528.95  E(vib)   ...       0.00
freq.    1536.93  E(vib)   ...       0.00
freq.    1648.96  E(vib)   ...       0.00
freq.    1649.25  E(vib)   ...       0.00
freq.    1663.21  E(vib)   ...       0.00
freq.    1667.04  E(vib)   ...       0.00
freq.    1698.25  E(vib)   ...       0.00
freq.    1789.87  E(vib)   ...       0.00
freq.    3036.50  E(vib)   ...       0.00
freq.    3036.69  E(vib)   ...       0.00
freq.    3073.16  E(vib)   ...       0.00
freq.    3091.79  E(vib)   ...       0.00
freq.    3102.94  E(vib)   ...       0.00
freq.    3108.16  E(vib)   ...       0.00
freq.    3143.79  E(vib)   ...       0.00
freq.    3156.94  E(vib)   ...       0.00
freq.    3164.70  E(vib)   ...       0.00
freq.    3181.30  E(vib)   ...       0.00
freq.    3191.76  E(vib)   ...       0.00
freq.    3195.19  E(vib)   ...       0.00
freq.    3200.43  E(vib)   ...       0.00
freq.    3206.24  E(vib)   ...       0.00
freq.    3213.27  E(vib)   ...       0.00
freq.    3213.41  E(vib)   ...       0.00
freq.    3230.14  E(vib)   ...       0.00
freq.    3230.87  E(vib)   ...       0.00
freq.    3234.41  E(vib)   ...       0.00
freq.    3277.61  E(vib)   ...       0.00

------------
INNER ENERGY
------------

The inner energy is: U= E(el) + E(ZPE) + E(vib) + E(rot) + E(trans)
    E(el)   - is the total energy from the electronic structure calculation
              = E(kin-el) + E(nuc-el) + E(el-el) + E(nuc-nuc)
    E(ZPE)  - the the zero temperature vibrational energy from the frequency calculation
    E(vib)  - the the finite temperature correction to E(ZPE) due to population
              of excited vibrational states
    E(rot)  - is the rotational thermal energy
    E(trans)- is the translational thermal energy

Summary of contributions to the inner energy U:
Electronic energy                ...  -1182.59515452 Eh

Rotational constants in cm-1:     0.009632     0.007600     0.005507

                             ****ORCA TERMINATED NORMALLY****
TOTAL RUN TIME: 0 days 3 hours 16 minutes 9 seconds 528 msec
