                         Program Version 5.0.4 -  RELEASE  -
|  1> %pal nprocs 24 end
|  2> ! PBE0 D3BJ def2-TZVP TightSCF OPTTS FREQ TightOpt
|  3> ! CPCM(dmso)
|  4> %scf
|  5> MaxIter 800
|  6> end
|  7>
|  8> %geom
|  9> MaxIter 800
| 10> MaxStep 0.15
| 11> end
| 12>
| 13> *xyz 0 1
| 14> C      -4.04376900      1.70920000      0.08942900
| 15> C      -3.60744600      1.18186500     -1.12469900
| 16> C      -2.24088000      1.04243800     -1.33568600
| 17> N      -1.35457500      1.39439800     -0.40618700
| 18> C      -1.75482500      1.89501300      0.76254000
| 19> C      -3.10213700      2.07829600      1.04813200
| 20> C       0.52783200      0.99442700     -0.81165800
| 21> C       1.00794900      2.36407700     -0.45120400
| 22> O       0.94338600      3.32098200     -1.18302600
| 23> O       1.46763100      2.40289100      0.79639900
| 24> C       1.98586200      3.65022100      1.24385600
| 25> H      -5.11138300      1.83020000      0.28735000
| 26> H      -1.84236800      0.62886000     -2.26704000
| 27> H      -0.97496400      2.14891800      1.48645700
| 28> H      -3.40160800      2.49422900      2.01148800
| 29> H       0.24096500      0.85818600     -1.85026600
| 30> H       1.21533600      4.43177600      1.18316500
| 31> H       2.85100100      3.94639000      0.63356900
| 32> C       2.07486700     -0.58245700      0.29292000
| 33> C       0.63191100     -0.19950700      0.12511700
| 34> C      -0.20364500     -1.36172900     -0.37808900
| 35> C       0.15771400     -2.03002600     -1.54762500
| 36> C      -0.60849600     -3.08090400     -2.05131700
| 37> C      -1.75687800     -3.47104600     -1.36525200
| 38> C      -2.13874300     -2.82238900     -0.19070600
| 39> C      -1.36562300     -1.76659000      0.30798700
| 40> O      -1.66825000     -1.08718900      1.43288400
| 41> C      -2.85673600     -1.38866800      2.12418300
| 42> N       2.90838600     -0.04117300     -0.56501500
| 43> O       4.14435800     -0.25109600     -0.63096500
| 44> H       0.23725100      0.10291200      1.10468300
| 45> H       1.06142700     -1.70609700     -2.07225500
| 46> H      -0.30992900     -3.58948000     -2.97051900
| 47> H      -2.37063700     -4.29306600     -1.74239800
| 48> H      -3.04016400     -3.14316300      0.33210500
| 49> H      -3.74159600     -1.24806100      1.48164600
| 50> H      -2.91161300     -0.68874000      2.96689000
| 51> H      -2.84952700     -2.42137600      2.51012400
| 52> O       2.36823400      0.77347600     -1.46926300
| 53> H       2.29177300      3.49750900      2.28452900
| 54> H      -4.31108000      0.87767700     -1.90128300
| 55> N       2.52052300     -1.52434800      1.20586500
| 56> C       1.77562000     -1.65829300      2.43388500
| 57> H       0.80201400     -2.17428200      2.30934900
| 58> H       2.37092000     -2.23958100      3.15463700
| 59> H       1.58531600     -0.66965000      2.87626000
| 60> C       3.03997900     -2.75788100      0.65030200
| 61> H       3.69874200     -2.51430000     -0.19529700
| 62> H       3.63702900     -3.28441900      1.41125000
| 63> H       2.23957800     -3.44052000      0.30234700
| 64> *
| 65>
| 66>                          ****END OF INPUT****
 Total Charge           Charge          ....    0
 Multiplicity           Mult            ....    1
 Number of Electrons    NEL             ....  198
Dispersion correction           -0.065578027
FINAL SINGLE POINT ENERGY     -1277.169515564853
Dispersion correction            ... done
Dispersion correction           -0.065711849
FINAL SINGLE POINT ENERGY     -1277.170206451176
Dispersion correction            ... done
Dispersion correction           -0.065798050
FINAL SINGLE POINT ENERGY     -1277.170207541133
Dispersion correction            ... done
FINAL SINGLE POINT ENERGY     -1277.169787101134
FINAL SINGLE POINT ENERGY     -1277.170162586711
FINAL SINGLE POINT ENERGY     -1277.171095591954
FINAL SINGLE POINT ENERGY     -1277.172182620310
FINAL SINGLE POINT ENERGY     -1277.173345816764
FINAL SINGLE POINT ENERGY     -1277.174541581840
FINAL SINGLE POINT ENERGY     -1277.174385155039
FINAL SINGLE POINT ENERGY     -1277.172006335447
FINAL SINGLE POINT ENERGY     -1277.172006641900
FINAL SINGLE POINT ENERGY     -1277.172006858993
FINAL SINGLE POINT ENERGY     -1277.172007039168
FINAL SINGLE POINT ENERGY     -1277.172007212346
FINAL SINGLE POINT ENERGY     -1277.172007358395
FINAL SINGLE POINT ENERGY     -1277.172007369477
Dispersion correction           -0.065283879
FINAL SINGLE POINT ENERGY     -1277.172007431728
Dispersion correction            ... done
Dispersion correction           -0.065286055
FINAL SINGLE POINT ENERGY     -1277.172007465919
Dispersion correction            ... done
                    ***********************HURRAY********************

CARTESIAN COORDINATES (ANGSTROEM)
---------------------------------
  C     -4.032475    1.819276    0.032166
  C     -3.589173    1.333611   -1.188502
  C     -2.233675    1.133520   -1.369036
  N     -1.357626    1.387977   -0.403253
  C     -1.769586    1.850698    0.772844
  C     -3.107087    2.086927    1.028798
  C      0.527465    0.979025   -0.810720
  C      0.992505    2.352097   -0.459074
  O      0.917073    3.296902   -1.205658
  O      1.450919    2.408059    0.784514
  C      1.935610    3.681138    1.220349
  H     -5.089026    1.985874    0.204958
  H     -1.835046    0.752090   -2.302748
  H     -1.008804    2.029781    1.524378
  H     -3.410136    2.466129    1.996042
  H      0.235853    0.835404   -1.837199
  H      1.140177    4.424783    1.169053
  H      2.774911    3.996362    0.600219
  C      2.078035   -0.600517    0.275308
  C      0.638066   -0.209662    0.123781
  C     -0.201200   -1.371331   -0.369321
  C      0.142754   -2.029959   -1.541212
  C     -0.615993   -3.083034   -2.031067
  C     -1.739013   -3.488461   -1.326789
  C     -2.101876   -2.852455   -0.147864
  C     -1.337279   -1.792889    0.334802
  O     -1.627833   -1.124477    1.471105
  C     -2.798503   -1.478431    2.180676
  N      2.905787   -0.048612   -0.565375
  O      4.156112   -0.245329   -0.623848
  H      0.262372    0.092372    1.101994
  H      1.027669   -1.703647   -2.078747
  H     -0.330610   -3.581201   -2.949724
  H     -2.344591   -4.310786   -1.690888
  H     -2.980234   -3.184839    0.388643
  H     -3.689020   -1.356647    1.557600
  H     -2.852930   -0.797639    3.027657
  H     -2.745145   -2.508938    2.542880
  O      2.370299    0.772877   -1.470200
  H      2.255887    3.536129    2.248597
  H     -4.277413    1.109975   -1.993154
  N      2.535728   -1.515203    1.207927
  C      1.747490   -1.668960    2.410831
  H      0.809537   -2.218541    2.246400
  H      2.338224   -2.224157    3.142081
  H      1.511676   -0.693503    2.837381
  C      3.030851   -2.770988    0.669149
  H      3.676969   -2.565693   -0.184102
  H      3.617635   -3.282980    1.434927
  H      2.213403   -3.434218    0.353021

 Multiplicity           Mult            ....    1
 Number of Electrons    NEL             ....  198
 Basis Dimension        Dim             ....  975

ORBITAL ENERGIES
----------------

  NO   OCC          E(Eh)            E(eV)
   0   2.0000     -19.265982      -524.2540
   1   2.0000     -19.245726      -523.7028
   2   2.0000     -19.201836      -522.5085
   3   2.0000     -19.199519      -522.4455
   4   2.0000     -19.170376      -521.6525
   5   2.0000     -14.537729      -395.5917
   6   2.0000     -14.444291      -393.0492
   7   2.0000     -14.396450      -391.7473
   8   2.0000     -10.364817      -282.0410
   9   2.0000     -10.322169      -280.8805
  10   2.0000     -10.291853      -280.0556
  11   2.0000     -10.286091      -279.8988
  12   2.0000     -10.286075      -279.8983
  13   2.0000     -10.278041      -279.6797
  14   2.0000     -10.271160      -279.4925
  15   2.0000     -10.266961      -279.3782
  16   2.0000     -10.260707      -279.2080
  17   2.0000     -10.260524      -279.2031
  18   2.0000     -10.251359      -278.9537
  19   2.0000     -10.251066      -278.9457
  20   2.0000     -10.239808      -278.6393
  21   2.0000     -10.237693      -278.5818
  22   2.0000     -10.233291      -278.4620
  23   2.0000     -10.230179      -278.3773
  24   2.0000     -10.230054      -278.3739
  25   2.0000     -10.226373      -278.2738
  26   2.0000     -10.222012      -278.1551
  27   2.0000      -1.176675       -32.0190
  28   2.0000      -1.154093       -31.4045
  29   2.0000      -1.109269       -30.1847
  30   2.0000      -1.060173       -28.8488
  31   2.0000      -1.020787       -27.7770
  32   2.0000      -1.005043       -27.3486
  33   2.0000      -0.976012       -26.5586
  34   2.0000      -0.896195       -24.3867
  35   2.0000      -0.863351       -23.4930
  36   2.0000      -0.849508       -23.1163
  37   2.0000      -0.821084       -22.3428
  38   2.0000      -0.816474       -22.2174
  39   2.0000      -0.792675       -21.5698
  40   2.0000      -0.778598       -21.1867
  41   2.0000      -0.748996       -20.3812
  42   2.0000      -0.732687       -19.9374
  43   2.0000      -0.719747       -19.5853
  44   2.0000      -0.694761       -18.9054
  45   2.0000      -0.682021       -18.5587
  46   2.0000      -0.676213       -18.4007
  47   2.0000      -0.668623       -18.1942
  48   2.0000      -0.626131       -17.0379
  49   2.0000      -0.613726       -16.7003
  50   2.0000      -0.597420       -16.2566
  51   2.0000      -0.583922       -15.8893
  52   2.0000      -0.562150       -15.2969
  53   2.0000      -0.559260       -15.2183
  54   2.0000      -0.547387       -14.8952
  55   2.0000      -0.530924       -14.4472
  56   2.0000      -0.526455       -14.3256
  57   2.0000      -0.525597       -14.3022
  58   2.0000      -0.512431       -13.9440
  59   2.0000      -0.506759       -13.7896
  60   2.0000      -0.502530       -13.6745
  61   2.0000      -0.499654       -13.5963
  62   2.0000      -0.496154       -13.5010
  63   2.0000      -0.491760       -13.3815
  64   2.0000      -0.484612       -13.1870
  65   2.0000      -0.472967       -12.8701
  66   2.0000      -0.465256       -12.6603
  67   2.0000      -0.463993       -12.6259
  68   2.0000      -0.459247       -12.4967
  69   2.0000      -0.453937       -12.3523
  70   2.0000      -0.451309       -12.2807
  71   2.0000      -0.444730       -12.1017
  72   2.0000      -0.437919       -11.9164
  73   2.0000      -0.430776       -11.7220
  74   2.0000      -0.425650       -11.5825
  75   2.0000      -0.415543       -11.3075
  76   2.0000      -0.414547       -11.2804
  77   2.0000      -0.400680       -10.9031
  78   2.0000      -0.400028       -10.8853
  79   2.0000      -0.397399       -10.8138
  80   2.0000      -0.394850       -10.7444
  81   2.0000      -0.385213       -10.4822
  82   2.0000      -0.381367       -10.3775
  83   2.0000      -0.380207       -10.3460
  84   2.0000      -0.369162       -10.0454
  85   2.0000      -0.354786        -9.6542
  86   2.0000      -0.344912        -9.3855
  87   2.0000      -0.343715        -9.3530
  88   2.0000      -0.332768        -9.0551
  89   2.0000      -0.327229        -8.9043
  90   2.0000      -0.318106        -8.6561
  91   2.0000      -0.300489        -8.1767
  92   2.0000      -0.298016        -8.1094
  93   2.0000      -0.289944        -7.8898
  94   2.0000      -0.271941        -7.3999
  95   2.0000      -0.268283        -7.3004
  96   2.0000      -0.261700        -7.1212
  97   2.0000      -0.241294        -6.5659
  98   2.0000      -0.192860        -5.2480
  99   0.0000      -0.056462        -1.5364
 100   0.0000      -0.035691        -0.9712
 101   0.0000      -0.029615        -0.8059
 102   0.0000      -0.017616        -0.4793
 103   0.0000       0.000153         0.0042

MULLIKEN ATOMIC CHARGES
-----------------------
   0 C :   -0.110762
   1 C :   -0.145958
   2 C :   -0.036976
   3 N :   -0.083584
   4 C :   -0.022163
   5 C :   -0.142130
   6 C :    0.050564
   7 C :    0.337600
   8 O :   -0.397244
   9 O :   -0.214255
  10 C :   -0.274155
  11 H :    0.176415
  12 H :    0.177716
  13 H :    0.185872
  14 H :    0.176525
  15 H :    0.176168
  16 H :    0.155194
  17 H :    0.157997
  18 C :   -0.179897
  19 C :    0.078630
  20 C :   -0.081280
  21 C :   -0.209697
  22 C :   -0.194310
  23 C :   -0.142727
  24 C :   -0.313959
  25 C :    0.320119
  26 O :   -0.264071
  27 C :   -0.281536
  28 N :    0.501481
  29 O :   -0.597022
  30 H :    0.150250
  31 H :    0.153523
  32 H :    0.145633
  33 H :    0.151151
  34 H :    0.163968
  35 H :    0.152726
  36 H :    0.160297
  37 H :    0.159135
  38 O :   -0.488062
  39 H :    0.163288
  40 H :    0.177579
  41 N :   -0.073850
  42 C :   -0.343003
  43 H :    0.121067
  44 H :    0.157085
  45 H :    0.155399
  46 C :   -0.325340
  47 H :    0.149852
  48 H :    0.145698
  49 H :    0.121050
Sum of atomic charges:   -0.0000000

LOEWDIN ATOMIC CHARGES
----------------------
   0 C :   -0.085685
   1 C :   -0.120137
   2 C :   -0.151506
   3 N :    0.269508
   4 C :   -0.155198
   5 C :   -0.119501
   6 C :   -0.069762
   7 C :   -0.530624
   8 O :    0.076520
   9 O :    0.277743
  10 C :   -0.300747
  11 H :    0.165331
  12 H :    0.161580
  13 H :    0.161178
  14 H :    0.165602
  15 H :    0.168707
  16 H :    0.120163
  17 H :    0.120889
  18 C :   -0.292659
  19 C :   -0.178624
  20 C :   -0.104370
  21 C :   -0.103676
  22 C :   -0.164991
  23 C :   -0.144881
  24 C :   -0.138934
  25 C :   -0.240188
  26 O :    0.257365
  27 C :   -0.329300
  28 N :   -0.017585
  29 O :   -0.273278
  30 H :    0.185174
  31 H :    0.163384
  32 H :    0.152105
  33 H :    0.154570
  34 H :    0.160442
  35 H :    0.117969
  36 H :    0.122197
  37 H :    0.118533
  38 O :   -0.098752
  39 H :    0.123101
  40 H :    0.165401
  41 N :    0.109505
  42 C :   -0.307991
  43 H :    0.114650
  44 H :    0.126018
  45 H :    0.127719
  46 C :   -0.310234
  47 H :    0.121935
  48 H :    0.121330
  49 H :    0.110001

  Mayer bond orders larger than 0.100000
B(  0-C ,  1-C ) :   1.4160 B(  0-C ,  5-C ) :   1.4163 B(  0-C , 11-H ) :   0.9475
B(  1-C ,  2-C ) :   1.4342 B(  1-C , 40-H ) :   0.9523 B(  2-C ,  3-N ) :   1.3701
B(  2-C , 12-H ) :   0.9367 B(  3-N ,  4-C ) :   1.3176 B(  3-N ,  6-C ) :   0.3435
B(  4-C ,  5-C ) :   1.4428 B(  4-C , 13-H ) :   0.9322 B(  5-C , 14-H ) :   0.9523
B(  6-C ,  7-C ) :   0.9533 B(  6-C , 15-H ) :   0.9371 B(  6-C , 19-C ) :   1.0001
B(  6-C , 38-O ) :   0.3319 B(  7-C ,  8-O ) :   2.0209 B(  7-C ,  9-O ) :   1.2361
B(  7-C , 38-O ) :   0.1157 B(  9-O , 10-C ) :   0.8911 B( 10-C , 16-H ) :   0.9661
B( 10-C , 17-H ) :   0.9654 B( 10-C , 39-H ) :   0.9655 B( 18-C , 19-C ) :   0.9555
B( 18-C , 28-N ) :   1.6013 B( 18-C , 29-O ) :   0.2726 B( 18-C , 38-O ) :   0.1072
B( 18-C , 41-N ) :   1.2807 B( 19-C , 20-C ) :   0.7540 B( 19-C , 30-H ) :   0.9552
B( 20-C , 21-C ) :   1.3705 B( 20-C , 25-C ) :   1.2822 B( 21-C , 22-C ) :   1.3938
B( 21-C , 31-H ) :   0.9850 B( 22-C , 23-C ) :   1.3929 B( 22-C , 32-H ) :   0.9856
B( 23-C , 24-C ) :   1.4025 B( 23-C , 33-H ) :   0.9690 B( 24-C , 25-C ) :   1.3775
B( 24-C , 34-H ) :   0.9606 B( 25-C , 26-O ) :   1.0679 B( 26-O , 27-C ) :   0.9350
B( 27-C , 35-H ) :   0.9642 B( 27-C , 36-H ) :   0.9645 B( 27-C , 37-H ) :   0.9579
B( 28-N , 29-O ) :   1.2255 B( 28-N , 38-O ) :   1.0238 B( 41-N , 42-C ) :   0.9670
B( 41-N , 46-C ) :   0.9396 B( 42-C , 43-H ) :   0.9577 B( 42-C , 44-H ) :   0.9601
B( 42-C , 45-H ) :   0.9643 B( 46-C , 47-H ) :   0.9628 B( 46-C , 48-H ) :   0.9667
B( 46-C , 49-H ) :   0.9561

Dispersion correction           -0.065287184
FINAL SINGLE POINT ENERGY     -1277.172007476888

DIPOLE MOMENT
-------------
                                X             Y             Z
Electronic contribution:      1.40746       9.20731      -9.76690
Nuclear contribution   :     -8.92217      -9.62042      12.63087
                        -----------------------------------------
Total Dipole Moment    :     -7.51471      -0.41312       2.86397
                        -----------------------------------------
Magnitude (a.u.)       :      8.05256
Magnitude (Debye)      :     20.46799

Dispersion correction in the Hessian             ... done   (      0.8 sec)

VIBRATIONAL FREQUENCIES
-----------------------

Scaling factor for frequencies =  1.000000000  (already applied!)

   0:         0.00 cm**-1
   1:         0.00 cm**-1
   2:         0.00 cm**-1
   3:         0.00 cm**-1
   4:         0.00 cm**-1
   5:         0.00 cm**-1
   6:      -546.11 cm**-1 ***imaginary mode***
   7:        21.90 cm**-1
   8:        34.10 cm**-1
   9:        40.94 cm**-1
  10:        54.58 cm**-1
  11:        58.29 cm**-1
  12:        59.32 cm**-1
  13:        65.06 cm**-1
  14:        73.46 cm**-1
  15:        97.02 cm**-1
  16:       105.31 cm**-1
  17:       115.16 cm**-1
  18:       137.04 cm**-1
  19:       150.93 cm**-1
  20:       156.34 cm**-1
  21:       165.73 cm**-1
  22:       178.97 cm**-1
  23:       182.01 cm**-1
  24:       197.27 cm**-1
  25:       216.81 cm**-1
  26:       219.85 cm**-1
  27:       232.12 cm**-1
  28:       238.94 cm**-1
  29:       247.66 cm**-1
  30:       252.04 cm**-1
  31:       262.25 cm**-1
  32:       291.26 cm**-1
  33:       306.75 cm**-1
  34:       318.89 cm**-1
  35:       351.67 cm**-1
  36:       391.22 cm**-1
  37:       396.67 cm**-1
  38:       417.09 cm**-1
  39:       449.11 cm**-1
  40:       478.71 cm**-1
  41:       490.85 cm**-1
  42:       505.71 cm**-1
  43:       557.69 cm**-1
  44:       582.59 cm**-1
  45:       598.69 cm**-1
  46:       606.14 cm**-1
  47:       634.55 cm**-1
  48:       636.64 cm**-1
  49:       659.57 cm**-1
  50:       680.42 cm**-1
  51:       705.80 cm**-1
  52:       713.20 cm**-1
  53:       721.67 cm**-1
  54:       756.00 cm**-1
  55:       768.27 cm**-1
  56:       777.78 cm**-1
  57:       780.81 cm**-1
  58:       810.56 cm**-1
  59:       834.61 cm**-1
  60:       874.03 cm**-1
  61:       883.49 cm**-1
  62:       895.69 cm**-1
  63:       901.47 cm**-1
  64:       962.10 cm**-1
  65:       969.76 cm**-1
  66:       981.48 cm**-1
  67:       997.29 cm**-1
  68:      1017.65 cm**-1
  69:      1037.30 cm**-1
  70:      1041.70 cm**-1
  71:      1060.42 cm**-1
  72:      1070.79 cm**-1
  73:      1072.86 cm**-1
  74:      1084.00 cm**-1
  75:      1085.00 cm**-1
  76:      1093.36 cm**-1
  77:      1102.69 cm**-1
  78:      1107.31 cm**-1
  79:      1114.04 cm**-1
  80:      1117.28 cm**-1
  81:      1138.46 cm**-1
  82:      1165.50 cm**-1
  83:      1168.97 cm**-1
  84:      1170.59 cm**-1
  85:      1171.66 cm**-1
  86:      1174.21 cm**-1
  87:      1194.43 cm**-1
  88:      1206.89 cm**-1
  89:      1212.40 cm**-1
  90:      1214.23 cm**-1
  91:      1226.64 cm**-1
  92:      1235.62 cm**-1
  93:      1247.36 cm**-1
  94:      1275.88 cm**-1
  95:      1282.20 cm**-1
  96:      1298.88 cm**-1
  97:      1303.23 cm**-1
  98:      1316.89 cm**-1
  99:      1323.46 cm**-1
 100:      1344.42 cm**-1
 101:      1373.10 cm**-1
 102:      1385.07 cm**-1
 103:      1398.86 cm**-1
 104:      1411.05 cm**-1
 105:      1429.63 cm**-1
 106:      1456.57 cm**-1
 107:      1465.85 cm**-1
 108:      1465.91 cm**-1
 109:      1469.58 cm**-1
 110:      1470.33 cm**-1
 111:      1474.00 cm**-1
 112:      1474.28 cm**-1
 113:      1477.26 cm**-1
 114:      1479.95 cm**-1
 115:      1483.35 cm**-1
 116:      1495.14 cm**-1
 117:      1497.89 cm**-1
 118:      1507.73 cm**-1
 119:      1528.06 cm**-1
 120:      1537.63 cm**-1
 121:      1648.17 cm**-1
 122:      1649.78 cm**-1
 123:      1663.12 cm**-1
 124:      1667.63 cm**-1
 125:      1701.92 cm**-1
 126:      1786.01 cm**-1
 127:      2993.66 cm**-1
 128:      2996.16 cm**-1
 129:      3037.24 cm**-1
 130:      3072.04 cm**-1
 131:      3090.47 cm**-1
 132:      3093.18 cm**-1
 133:      3108.73 cm**-1
 134:      3113.97 cm**-1
 135:      3139.74 cm**-1
 136:      3144.64 cm**-1
 137:      3155.74 cm**-1
 138:      3165.66 cm**-1
 139:      3183.53 cm**-1
 140:      3190.45 cm**-1
 141:      3195.18 cm**-1
 142:      3200.60 cm**-1
 143:      3206.59 cm**-1
 144:      3213.57 cm**-1
 145:      3213.84 cm**-1
 146:      3230.93 cm**-1
 147:      3231.02 cm**-1
 148:      3235.17 cm**-1
 149:      3277.42 cm**-1

IR SPECTRUM
-----------

 Mode   freq       eps      Int      T**2         TX        TY        TZ
       cm**-1   L/(mol*cm) km/mol    a.u.
----------------------------------------------------------------------------
  7:     21.90   0.000286    1.45  0.004078  ( 0.028280  0.029110  0.049301)
  8:     34.10   0.000264    1.33  0.002412  ( 0.004496  0.047391  0.012094)
  9:     40.94   0.000124    0.63  0.000943  ( 0.006433 -0.026987 -0.013168)
 10:     54.58   0.000244    1.23  0.001394  (-0.024824 -0.013275 -0.024531)
 11:     58.29   0.001463    7.39  0.007832  ( 0.045738 -0.069795 -0.029471)
 12:     59.32   0.000306    1.55  0.001608  (-0.027871  0.028829  0.000623)
 13:     65.06   0.000427    2.16  0.002049  ( 0.008826 -0.044393 -0.000880)
 14:     73.46   0.000851    4.30  0.003616  (-0.045821 -0.018112  0.034478)
 15:     97.02   0.002337   11.81  0.007517  (-0.011280  0.032267  0.079675)
 16:    105.31   0.001343    6.79  0.003980  ( 0.040688 -0.047870  0.005784)
 17:    115.16   0.000247    1.25  0.000668  ( 0.003744  0.025396  0.003020)
 18:    137.04   0.000707    3.57  0.001610  ( 0.035663 -0.017042 -0.006919)
 19:    150.93   0.000124    0.63  0.000257  ( 0.005445  0.005930  0.013877)
 20:    156.34   0.002396   12.11  0.004782  (-0.064973  0.020106  0.012485)
 21:    165.73   0.000236    1.20  0.000445  (-0.017930 -0.008048 -0.007685)
 22:    178.97   0.002057   10.40  0.003588  ( 0.043664 -0.040980 -0.001276)
 23:    182.01   0.000790    3.99  0.001355  (-0.016766  0.010307  0.031110)
 24:    197.27   0.004735   23.93  0.007490  (-0.086085  0.008731 -0.001799)
 25:    216.81   0.000165    0.83  0.000237  ( 0.012515 -0.005217  0.007278)
 26:    219.85   0.000647    3.27  0.000918  (-0.000606 -0.026232  0.015153)
 27:    232.12   0.000384    1.94  0.000516  (-0.000257  0.013310  0.018408)
 28:    238.94   0.000720    3.64  0.000940  ( 0.015732  0.021991  0.014450)
 29:    247.66   0.000258    1.31  0.000325  ( 0.016179 -0.006608 -0.004474)
 30:    252.04   0.005692   28.77  0.007048  ( 0.055038 -0.061182  0.016594)
 31:    262.25   0.000536    2.71  0.000638  ( 0.014984  0.017205  0.010854)
 32:    291.26   0.001927    9.74  0.002064  (-0.018996 -0.005015  0.040966)
 33:    306.75   0.001343    6.78  0.001366  (-0.010006  0.028543  0.021237)
 34:    318.89   0.001403    7.09  0.001373  (-0.019784 -0.013484 -0.028283)
 35:    351.67   0.003895   19.69  0.003457  ( 0.046786  0.019583  0.029737)
 36:    391.22   0.005052   25.53  0.004030  ( 0.008370  0.000945 -0.062919)
 37:    396.67   0.000008    0.04  0.000006  ( 0.000560 -0.000167 -0.002439)
 38:    417.09   0.001888    9.54  0.001412  (-0.035806 -0.002422 -0.011160)
 39:    449.11   0.001154    5.83  0.000802  (-0.009339 -0.024721  0.010185)
 40:    478.71   0.002790   14.10  0.001819  ( 0.038011  0.019335 -0.000650)
 41:    490.85   0.000983    4.97  0.000625  (-0.014923  0.005352 -0.019333)
 42:    505.71   0.002481   12.54  0.001531  (-0.033992 -0.016566 -0.010070)
 43:    557.69   0.002170   10.97  0.001214  ( 0.019133 -0.026179  0.012764)
 44:    582.59   0.002350   11.88  0.001259  ( 0.008060  0.014099  0.031547)
 45:    598.69   0.001266    6.40  0.000660  (-0.022165  0.011684 -0.005651)
 46:    606.14   0.003687   18.64  0.001898  (-0.037578  0.017929 -0.012840)
 47:    634.55   0.010413   52.62  0.005121  (-0.036310  0.058134 -0.020564)
 48:    636.64   0.001456    7.36  0.000713  (-0.007693 -0.023140  0.010900)
 49:    659.57   0.000224    1.13  0.000106  ( 0.009037 -0.004484  0.002023)
 50:    680.42   0.002040   10.31  0.000935  (-0.024770  0.002404 -0.017779)
 51:    705.80   0.003646   18.43  0.001612  ( 0.017002 -0.034890 -0.010278)
 52:    713.20   0.018436   93.17  0.008067  (-0.007506 -0.083565  0.032047)
 53:    721.67   0.010695   54.05  0.004625  (-0.004794  0.067586  0.005805)
 54:    756.00   0.005999   30.32  0.002476  ( 0.041276 -0.018871 -0.020405)
 55:    768.27   0.013045   65.92  0.005299  ( 0.051834 -0.031542  0.040211)
 56:    777.78   0.017356   87.71  0.006964  (-0.027176  0.072022 -0.032215)
 57:    780.81   0.000418    2.11  0.000167  ( 0.007590 -0.002760  0.010089)
 58:    810.56   0.003257   16.46  0.001254  (-0.003950 -0.017280 -0.030657)
 59:    834.61   0.003497   17.67  0.001307  (-0.021294 -0.026102  0.013140)
 60:    874.03   0.003526   17.82  0.001259  ( 0.010919 -0.032437  0.009362)
 61:    883.49   0.004385   22.16  0.001549  ( 0.013999  0.034874  0.011695)
 62:    895.69   0.000005    0.02  0.000002  ( 0.000097  0.000373 -0.001204)
 63:    901.47   0.003274   16.55  0.001133  (-0.001540  0.022402 -0.025083)
 64:    962.10   0.001173    5.93  0.000380  ( 0.008468  0.008048  0.015620)
 65:    969.76   0.001048    5.29  0.000337  ( 0.007913 -0.010741  0.012614)
 66:    981.48   0.000151    0.76  0.000048  ( 0.002538  0.005607 -0.003164)
 67:    997.29   0.000045    0.23  0.000014  ( 0.001955 -0.002813  0.001565)
 68:   1017.65   0.000025    0.13  0.000008  (-0.001422 -0.001910 -0.001397)
 69:   1037.30   0.014945   75.52  0.004496  (-0.059494  0.030038 -0.007357)
 70:   1041.70   0.000028    0.14  0.000008  (-0.001365  0.002510 -0.000557)
 71:   1060.42   0.000077    0.39  0.000023  ( 0.003169  0.002575 -0.002437)
 72:   1070.79   0.009683   48.93  0.002822  ( 0.039543  0.016720 -0.031285)
 73:   1072.86   0.001576    7.97  0.000459  (-0.005817  0.013572  0.015508)
 74:   1084.00   0.017702   89.46  0.005096  (-0.023550 -0.028217 -0.061200)
 75:   1085.00   0.013040   65.90  0.003751  (-0.050036 -0.034942  0.005105)
 76:   1093.36   0.029526  149.21  0.008427  ( 0.036645 -0.082500  0.016675)
 77:   1102.69   0.036868  186.32  0.010434  ( 0.010124  0.074998 -0.068605)
 78:   1107.31   0.012264   61.98  0.003456  (-0.021559 -0.053643  0.010670)
 79:   1114.04   0.004694   23.72  0.001315  ( 0.009782 -0.034883  0.001506)
 80:   1117.28   0.005146   26.01  0.001437  ( 0.006504  0.006832 -0.036721)
 81:   1138.46   0.017848   90.20  0.004892  (-0.038038 -0.025077  0.053071)
 82:   1165.50   0.001783    9.01  0.000477  (-0.011133  0.005648 -0.017931)
 83:   1168.97   0.000730    3.69  0.000195  ( 0.002450  0.003442  0.013308)
 84:   1170.59   0.000170    0.86  0.000045  ( 0.003859 -0.004412  0.003324)
 85:   1171.66   0.000490    2.47  0.000130  ( 0.010196 -0.003510 -0.003761)
 86:   1174.21   0.002145   10.84  0.000570  ( 0.018375  0.008234 -0.012833)
 87:   1194.43   0.000622    3.14  0.000163  ( 0.003774  0.005956 -0.010621)
 88:   1206.89   0.001609    8.13  0.000416  (-0.000651  0.000906 -0.020365)
 89:   1212.40   0.002027   10.24  0.000522  (-0.003875 -0.000700  0.022499)
 90:   1214.23   0.002819   14.24  0.000724  (-0.025927 -0.001119  0.007139)
 91:   1226.64   0.001822    9.21  0.000464  (-0.017743 -0.008294  0.008947)
 92:   1235.62   0.009498   48.00  0.002399  (-0.047616  0.011277 -0.002058)
 93:   1247.36   0.007925   40.05  0.001983  ( 0.043223  0.007957  0.007142)
 94:   1275.88   0.044012  222.42  0.010765  (-0.085836  0.056844  0.012870)
 95:   1282.20   0.071193  359.78  0.017327  ( 0.088396 -0.046642 -0.085661)
 96:   1298.88   0.058754  296.92  0.014116  (-0.115399 -0.028262  0.000372)
 97:   1303.23   0.030046  151.84  0.007195  ( 0.033108 -0.023251 -0.074552)
 98:   1316.89   0.057798  292.09  0.013696  (-0.062703 -0.055007 -0.082091)
 99:   1323.46   0.008073   40.80  0.001904  ( 0.013579  0.027590  0.030951)
100:   1344.42   0.004974   25.14  0.001155  ( 0.009986  0.013676  0.029459)
101:   1373.10   0.013168   66.54  0.002993  (-0.048402 -0.018934 -0.017071)
102:   1385.07   0.000525    2.65  0.000118  ( 0.007966  0.001859 -0.007165)
103:   1398.86   0.013348   67.45  0.002978  ( 0.007562  0.018612  0.050736)
104:   1411.05   0.042604  215.30  0.009422  (-0.010260 -0.055584  0.078913)
105:   1429.63   0.008224   41.56  0.001795  ( 0.014433  0.028092 -0.028245)
106:   1456.57   0.001216    6.15  0.000261  ( 0.009844  0.002977 -0.012442)
107:   1465.85   0.007854   39.69  0.001672  ( 0.012921 -0.023021 -0.031226)
108:   1465.91   0.002232   11.28  0.000475  (-0.021413  0.002016  0.003544)
109:   1469.58   0.008901   44.98  0.001890  ( 0.011654  0.021850  0.035733)
110:   1470.33   0.006719   33.96  0.001426  (-0.021034 -0.020399 -0.023823)
111:   1474.00   0.003250   16.43  0.000688  ( 0.012821 -0.017515  0.014731)
112:   1474.28   0.001310    6.62  0.000277  ( 0.001285  0.012351 -0.011099)
113:   1477.26   0.006217   31.42  0.001313  ( 0.025237 -0.002234  0.025911)
114:   1479.95   0.004102   20.73  0.000865  ( 0.026613 -0.006465 -0.010718)
115:   1483.35   0.004211   21.28  0.000886  ( 0.005751 -0.013167 -0.026068)
116:   1495.14   0.014790   74.74  0.003087  ( 0.004517  0.013389  0.053733)
117:   1497.89   0.011605   58.65  0.002418  ( 0.024338 -0.014678 -0.040123)
118:   1507.73   0.021506  108.68  0.004451  ( 0.015379  0.046046 -0.045765)
119:   1528.06   0.000400    2.02  0.000082  ( 0.008076  0.003487  0.002092)
120:   1537.63   0.032448  163.98  0.006585  (-0.027267  0.037886  0.066382)
121:   1648.17   0.005833   29.48  0.001104  (-0.026270 -0.002806  0.020158)
122:   1649.78   0.001678    8.48  0.000317  ( 0.000923  0.006656  0.016500)
123:   1663.12   0.014846   75.02  0.002786  ( 0.017481 -0.023209 -0.044061)
124:   1667.63   0.013207   66.74  0.002471  ( 0.047870 -0.012759 -0.004124)
125:   1701.92   0.039684  200.55  0.007277  ( 0.084269  0.010286 -0.008338)
126:   1786.01   0.118883  600.79  0.020772  (-0.014500  0.102844 -0.099925)
127:   2993.66   0.014426   72.90  0.001504  (-0.007025  0.033837  0.017592)
128:   2996.16   0.031922  161.32  0.003325  (-0.034809 -0.042219  0.018183)
129:   3037.24   0.012446   62.90  0.001279  ( 0.027998  0.007927 -0.020786)
130:   3072.04   0.006261   31.64  0.000636  ( 0.008838  0.021718  0.009287)
131:   3090.47   0.015840   80.05  0.001600  ( 0.031610 -0.004689  0.024049)
132:   3093.18   0.002382   12.04  0.000240  (-0.002527  0.009509  0.011981)
133:   3108.73   0.007682   38.82  0.000771  (-0.014240  0.018087 -0.015531)
134:   3113.97   0.000315    1.59  0.000032  (-0.002743 -0.003450 -0.003485)
135:   3139.74   0.004989   25.21  0.000496  (-0.008444  0.020584 -0.000895)
136:   3144.64   0.002552   12.89  0.000253  (-0.000690 -0.003449  0.015519)
137:   3155.74   0.003788   19.14  0.000375  (-0.017747  0.004516  0.006264)
138:   3165.66   0.003716   18.78  0.000366  ( 0.000054  0.012494  0.014498)
139:   3183.53   0.000447    2.26  0.000044  (-0.005506 -0.003045  0.002045)
140:   3190.45   0.002079   10.51  0.000203  (-0.004067  0.003528 -0.013206)
141:   3195.18   0.001326    6.70  0.000129  (-0.008227 -0.007809 -0.000906)
142:   3200.60   0.000723    3.65  0.000070  (-0.007797  0.000735 -0.003025)
143:   3206.59   0.000921    4.66  0.000090  ( 0.009415 -0.000883 -0.000471)
144:   3213.57   0.003023   15.28  0.000294  ( 0.001636 -0.010167 -0.013694)
145:   3213.84   0.000006    0.03  0.000001  (-0.000206  0.000112  0.000733)
146:   3230.93   0.000489    2.47  0.000047  ( 0.005501  0.002792 -0.003033)
147:   3231.02   0.000138    0.70  0.000013  (-0.000085 -0.000896 -0.003544)
148:   3235.17   0.000342    1.73  0.000033  ( 0.005548 -0.001463 -0.000260)
149:   3277.42   0.000470    2.37  0.000045  ( 0.004917 -0.003732 -0.002573)

--------------------------
THERMOCHEMISTRY AT 298.15K
--------------------------

Temperature         ... 298.15 K
Pressure            ... 1.00 atm
Total Mass          ... 373.41 AMU

Throughout the following assumptions are being made:
  (1) The electronic state is orbitally nondegenerate
  (2) There are no thermally accessible electronically excited states
  (3) Hindered rotations indicated by low frequency modes are not
      treated as such but are treated as vibrations and this may
      cause some error
  (4) All equations used are the standard statistical mechanics
      equations for an ideal gas
  (5) All vibrations are strictly harmonic

freq.      21.90  E(vib)   ...       0.56
freq.      34.10  E(vib)   ...       0.55
freq.      40.94  E(vib)   ...       0.54
freq.      54.58  E(vib)   ...       0.52
freq.      58.29  E(vib)   ...       0.51
freq.      59.32  E(vib)   ...       0.51
freq.      65.06  E(vib)   ...       0.50
freq.      73.46  E(vib)   ...       0.49
freq.      97.02  E(vib)   ...       0.46
freq.     105.31  E(vib)   ...       0.45
freq.     115.16  E(vib)   ...       0.44
freq.     137.04  E(vib)   ...       0.42
freq.     150.93  E(vib)   ...       0.40
freq.     156.34  E(vib)   ...       0.40
freq.     165.73  E(vib)   ...       0.39
freq.     178.97  E(vib)   ...       0.37
freq.     182.01  E(vib)   ...       0.37
freq.     197.27  E(vib)   ...       0.35
freq.     216.81  E(vib)   ...       0.34
freq.     219.85  E(vib)   ...       0.33
freq.     232.12  E(vib)   ...       0.32
freq.     238.94  E(vib)   ...       0.32
freq.     247.66  E(vib)   ...       0.31
freq.     252.04  E(vib)   ...       0.30
freq.     262.25  E(vib)   ...       0.29
freq.     291.26  E(vib)   ...       0.27
freq.     306.75  E(vib)   ...       0.26
freq.     318.89  E(vib)   ...       0.25
freq.     351.67  E(vib)   ...       0.23
freq.     391.22  E(vib)   ...       0.20
freq.     396.67  E(vib)   ...       0.20
freq.     417.09  E(vib)   ...       0.18
freq.     449.11  E(vib)   ...       0.17
freq.     478.71  E(vib)   ...       0.15
freq.     490.85  E(vib)   ...       0.14
freq.     505.71  E(vib)   ...       0.14
freq.     557.69  E(vib)   ...       0.12
freq.     582.59  E(vib)   ...       0.11
freq.     598.69  E(vib)   ...       0.10
freq.     606.14  E(vib)   ...       0.10
freq.     634.55  E(vib)   ...       0.09
freq.     636.64  E(vib)   ...       0.09
freq.     659.57  E(vib)   ...       0.08
freq.     680.42  E(vib)   ...       0.08
freq.     705.80  E(vib)   ...       0.07
freq.     713.20  E(vib)   ...       0.07
freq.     721.67  E(vib)   ...       0.07
freq.     756.00  E(vib)   ...       0.06
freq.     768.27  E(vib)   ...       0.06
freq.     777.78  E(vib)   ...       0.05
freq.     780.81  E(vib)   ...       0.05
freq.     810.56  E(vib)   ...       0.05
freq.     834.61  E(vib)   ...       0.04
freq.     874.03  E(vib)   ...       0.04
freq.     883.49  E(vib)   ...       0.04
freq.     895.69  E(vib)   ...       0.03
freq.     901.47  E(vib)   ...       0.03
freq.     962.10  E(vib)   ...       0.03
freq.     969.76  E(vib)   ...       0.03
freq.     981.48  E(vib)   ...       0.02
freq.     997.29  E(vib)   ...       0.02
freq.    1017.65  E(vib)   ...       0.02
freq.    1037.30  E(vib)   ...       0.02
freq.    1041.70  E(vib)   ...       0.02
freq.    1060.42  E(vib)   ...       0.02
freq.    1070.79  E(vib)   ...       0.02
freq.    1072.86  E(vib)   ...       0.02
freq.    1084.00  E(vib)   ...       0.02
freq.    1085.00  E(vib)   ...       0.02
freq.    1093.36  E(vib)   ...       0.02
freq.    1102.69  E(vib)   ...       0.02
freq.    1107.31  E(vib)   ...       0.02
freq.    1114.04  E(vib)   ...       0.01
freq.    1117.28  E(vib)   ...       0.01
freq.    1138.46  E(vib)   ...       0.01
freq.    1165.50  E(vib)   ...       0.01
freq.    1168.97  E(vib)   ...       0.01
freq.    1170.59  E(vib)   ...       0.01
freq.    1171.66  E(vib)   ...       0.01
freq.    1174.21  E(vib)   ...       0.01
freq.    1194.43  E(vib)   ...       0.01
freq.    1206.89  E(vib)   ...       0.01
freq.    1212.40  E(vib)   ...       0.01
freq.    1214.23  E(vib)   ...       0.01
freq.    1226.64  E(vib)   ...       0.01
freq.    1235.62  E(vib)   ...       0.01
freq.    1247.36  E(vib)   ...       0.01
freq.    1275.88  E(vib)   ...       0.01
freq.    1282.20  E(vib)   ...       0.01
freq.    1298.88  E(vib)   ...       0.01
freq.    1303.23  E(vib)   ...       0.01
freq.    1316.89  E(vib)   ...       0.01
freq.    1323.46  E(vib)   ...       0.01
freq.    1344.42  E(vib)   ...       0.01
freq.    1373.10  E(vib)   ...       0.01
freq.    1385.07  E(vib)   ...       0.00
freq.    1398.86  E(vib)   ...       0.00
freq.    1411.05  E(vib)   ...       0.00
freq.    1429.63  E(vib)   ...       0.00
freq.    1456.57  E(vib)   ...       0.00
freq.    1465.85  E(vib)   ...       0.00
freq.    1465.91  E(vib)   ...       0.00
freq.    1469.58  E(vib)   ...       0.00
freq.    1470.33  E(vib)   ...       0.00
freq.    1474.00  E(vib)   ...       0.00
freq.    1474.28  E(vib)   ...       0.00
freq.    1477.26  E(vib)   ...       0.00
freq.    1479.95  E(vib)   ...       0.00
freq.    1483.35  E(vib)   ...       0.00
freq.    1495.14  E(vib)   ...       0.00
freq.    1497.89  E(vib)   ...       0.00
freq.    1507.73  E(vib)   ...       0.00
freq.    1528.06  E(vib)   ...       0.00
freq.    1537.63  E(vib)   ...       0.00
freq.    1648.17  E(vib)   ...       0.00
freq.    1649.78  E(vib)   ...       0.00
freq.    1663.12  E(vib)   ...       0.00
freq.    1667.63  E(vib)   ...       0.00
freq.    1701.92  E(vib)   ...       0.00
freq.    1786.01  E(vib)   ...       0.00
freq.    2993.66  E(vib)   ...       0.00
freq.    2996.16  E(vib)   ...       0.00
freq.    3037.24  E(vib)   ...       0.00
freq.    3072.04  E(vib)   ...       0.00
freq.    3090.47  E(vib)   ...       0.00
freq.    3093.18  E(vib)   ...       0.00
freq.    3108.73  E(vib)   ...       0.00
freq.    3113.97  E(vib)   ...       0.00
freq.    3139.74  E(vib)   ...       0.00
freq.    3144.64  E(vib)   ...       0.00
freq.    3155.74  E(vib)   ...       0.00
freq.    3165.66  E(vib)   ...       0.00
freq.    3183.53  E(vib)   ...       0.00
freq.    3190.45  E(vib)   ...       0.00
freq.    3195.18  E(vib)   ...       0.00
freq.    3200.60  E(vib)   ...       0.00
freq.    3206.59  E(vib)   ...       0.00
freq.    3213.57  E(vib)   ...       0.00
freq.    3213.84  E(vib)   ...       0.00
freq.    3230.93  E(vib)   ...       0.00
freq.    3231.02  E(vib)   ...       0.00
freq.    3235.17  E(vib)   ...       0.00
freq.    3277.42  E(vib)   ...       0.00

Rotational constants in cm-1:     0.008041     0.006923     0.004902

                             ****ORCA TERMINATED NORMALLY****
TOTAL RUN TIME: 0 days 4 hours 13 minutes 17 seconds 219 msec
