                         Program Version 5.0.4 -  RELEASE  -
|  1> %pal nprocs 24 end
|  2> ! PBE0 D3BJ def2-TZVP TightSCF OPTTS FREQ TightOpt
|  3> ! CPCM(dmso)
|  4> %scf
|  5> MaxIter 800
|  6> end
|  7>
|  8> %geom
|  9> MaxIter 800
| 10> MaxStep 0.15
| 11> end
| 12>
| 13> *xyz 0 1
| 14> C      -4.57475600      0.12467900      0.29232300
| 15> C      -3.78855000      0.60787900      1.33580400
| 16> C      -2.47252500      0.96761900      1.06704500
| 17> N      -1.96216500      0.86993200     -0.15959100
| 18> C      -2.70331200      0.41604900     -1.16974100
| 19> C      -4.02406700      0.02691000     -0.98499300
| 20> C      -0.02753900      1.26904600     -0.62916400
| 21> C      -0.10141900      2.57503600      0.09581800
| 22> O       0.20599200      2.70936600      1.25685000
| 23> O      -0.56385300      3.53659000     -0.68217500
| 24> C      -0.68080600      4.82874900     -0.09376400
| 25> H      -5.61026000     -0.17383200      0.47211700
| 26> H      -1.80927200      1.34636500      1.84991800
| 27> H      -2.22099700      0.35307600     -2.15004400
| 28> H      -4.60353400     -0.34738700     -1.83043700
| 29> H      -0.34994600      1.22158500     -1.66550400
| 30> H      -1.07804500      5.48414400     -0.87609300
| 31> H       0.30212300      5.18898100      0.24148400
| 32> C       2.02492000      0.14696700      0.05332300
| 33> C       0.53216400      0.04784700      0.08706400
| 34> C       0.02808200     -1.24754500     -0.51968500
| 35> C       0.40615700     -1.61873800     -1.80852700
| 36> C      -0.05936500     -2.79817400     -2.38939300
| 37> C      -0.91183400     -3.62244700     -1.65828400
| 38> C      -1.29744200     -3.27792700     -0.36271600
| 39> C      -0.82687400     -2.09243500      0.21454200
| 40> O      -1.15025500     -1.68835100      1.45810200
| 41> C      -2.07448800     -2.43892000      2.20977700
| 42> N       2.53968700      1.06320300     -0.74752000
| 43> O       3.73782600      1.22626100     -0.98826500
| 44> H       0.19516500      0.09925700      1.13197100
| 45> H       1.08256800     -0.96482900     -2.36710900
| 46> H       0.24610500     -3.07125700     -3.40161400
| 47> H      -1.28492000     -4.55263400     -2.09432800
| 48> H      -1.96239000     -3.93775700      0.19507600
| 49> H      -3.04764400     -2.50636100      1.69586300
| 50> H      -2.20660000     -1.90664000      3.15964400
| 51> H      -1.69999200     -3.45566900      2.41279700
| 52> O       1.67485800      1.85899500     -1.32125800
| 53> H      -1.36799100      4.79905700      0.76383600
| 54> H      -4.18036400      0.70188200      2.34986900
| 55> C       2.91802000     -0.86132900      0.66958100
| 56> F       3.94413700     -0.33140100      1.34713400
| 57> F       3.46118400     -1.70834300     -0.22709700
| 58> F       2.21929900     -1.61496700      1.53044900
| 59> *
| 60>
| 61>                          ****END OF INPUT****
 Total Charge           Charge          ....    0
 Multiplicity           Mult            ....    1
 Number of Electrons    NEL             ....  206
Dispersion correction           -0.058595742
FINAL SINGLE POINT ENERGY     -1480.186829703308
Dispersion correction            ... done
Dispersion correction           -0.058572819
FINAL SINGLE POINT ENERGY     -1480.186829210598
Dispersion correction            ... done
Dispersion correction           -0.058391885
FINAL SINGLE POINT ENERGY     -1480.185461342234
Dispersion correction            ... done
FINAL SINGLE POINT ENERGY     -1480.184559669874
FINAL SINGLE POINT ENERGY     -1480.183920387465
FINAL SINGLE POINT ENERGY     -1480.185084042771
FINAL SINGLE POINT ENERGY     -1480.186064991085
FINAL SINGLE POINT ENERGY     -1480.187668401421
FINAL SINGLE POINT ENERGY     -1480.189275545975
FINAL SINGLE POINT ENERGY     -1480.189168537793
FINAL SINGLE POINT ENERGY     -1480.189324206235
FINAL SINGLE POINT ENERGY     -1480.189321941619
FINAL SINGLE POINT ENERGY     -1480.189320388697
FINAL SINGLE POINT ENERGY     -1480.189319060284
FINAL SINGLE POINT ENERGY     -1480.189317902709
FINAL SINGLE POINT ENERGY     -1480.189316809294
FINAL SINGLE POINT ENERGY     -1480.189314910038
Dispersion correction           -0.058071524
FINAL SINGLE POINT ENERGY     -1480.189313671659
Dispersion correction            ... done
Dispersion correction           -0.058073834
FINAL SINGLE POINT ENERGY     -1480.189314246723
Dispersion correction            ... done
                    ***********************HURRAY********************

CARTESIAN COORDINATES (ANGSTROEM)
---------------------------------
  C     -4.568546    0.264815    0.628141
  C     -3.683361    0.747910    1.578746
  C     -2.390592    1.044969    1.189776
  N     -1.986692    0.890052   -0.066778
  C     -2.827598    0.433044   -0.988667
  C     -4.134038    0.103363   -0.678608
  C     -0.066005    1.194359   -0.679144
  C     -0.063443    2.540150   -0.034563
  O      0.323075    2.737507    1.091659
  O     -0.551390    3.461529   -0.846084
  C     -0.599966    4.794422   -0.325024
  H     -5.586067    0.013512    0.903008
  H     -1.655265    1.412631    1.897161
  H     -2.438932    0.319901   -1.994970
  H     -4.791024   -0.274183   -1.451289
  H     -0.445086    1.101704   -1.682817
  H     -1.052229    5.397494   -1.107481
  H      0.407370    5.148015   -0.104499
  C      1.970798    0.132519    0.100250
  C      0.485357   -0.011032    0.059438
  C      0.037767   -1.303012   -0.594555
  C      0.468096   -1.622478   -1.874364
  C      0.047032   -2.780046   -2.512061
  C     -0.817151   -3.637702   -1.849479
  C     -1.253855   -3.347336   -0.564766
  C     -0.828712   -2.181556    0.068514
  O     -1.210145   -1.829753    1.313724
  C     -2.162087   -2.637151    1.979127
  N      2.494945    0.996231   -0.733550
  O      3.703882    1.231314   -0.887785
  H      0.106187    0.019098    1.080609
  H      1.144008   -0.943466   -2.384586
  H      0.390820   -3.007294   -3.513849
  H     -1.158643   -4.547606   -2.330065
  H     -1.924564   -4.029975   -0.060902
  H     -3.090876   -2.702508    1.405722
  H     -2.356968   -2.147294    2.930855
  H     -1.772205   -3.642848    2.159213
  O      1.633986    1.666890   -1.464246
  H     -1.207590    4.822783    0.579506
  H     -3.979452    0.887350    2.610329
  C      2.849714   -0.656446    0.992969
  F      3.619117    0.101654    1.795731
  F      3.695505   -1.475066    0.338401
  F      2.101903   -1.433933    1.790341

 Multiplicity           Mult            ....    1
 Number of Electrons    NEL             ....  206
 Basis Dimension        Dim             ....  970

ORBITAL ENERGIES
----------------

  NO   OCC          E(Eh)            E(eV)
   0   2.0000     -24.810965      -675.1407
   1   2.0000     -24.804130      -674.9547
   2   2.0000     -24.803668      -674.9421
   3   2.0000     -19.269110      -524.3391
   4   2.0000     -19.246440      -523.7222
   5   2.0000     -19.232341      -523.3386
   6   2.0000     -19.210364      -522.7406
   7   2.0000     -19.205552      -522.6097
   8   2.0000     -14.588857      -396.9830
   9   2.0000     -14.441411      -392.9708
  10   2.0000     -10.481370      -285.2126
  11   2.0000     -10.371302      -282.2175
  12   2.0000     -10.333363      -281.1851
  13   2.0000     -10.293361      -280.0966
  14   2.0000     -10.285507      -279.8829
  15   2.0000     -10.284427      -279.8535
  16   2.0000     -10.273044      -279.5437
  17   2.0000     -10.272887      -279.5395
  18   2.0000     -10.271889      -279.5123
  19   2.0000     -10.267071      -279.3812
  20   2.0000     -10.260105      -279.1916
  21   2.0000     -10.250862      -278.9401
  22   2.0000     -10.250406      -278.9277
  23   2.0000     -10.242157      -278.7033
  24   2.0000     -10.232245      -278.4335
  25   2.0000     -10.231151      -278.4038
  26   2.0000     -10.227285      -278.2986
  27   2.0000     -10.223055      -278.1835
  28   2.0000      -1.355328       -36.8803
  29   2.0000      -1.266419       -34.4610
  30   2.0000      -1.259819       -34.2814
  31   2.0000      -1.225042       -33.3351
  32   2.0000      -1.160464       -31.5778
  33   2.0000      -1.110081       -30.2069
  34   2.0000      -1.068946       -29.0875
  35   2.0000      -1.048465       -28.5302
  36   2.0000      -1.018134       -27.7048
  37   2.0000      -0.912651       -24.8345
  38   2.0000      -0.885398       -24.0929
  39   2.0000      -0.858852       -23.3706
  40   2.0000      -0.836661       -22.7667
  41   2.0000      -0.815167       -22.1818
  42   2.0000      -0.796994       -21.6873
  43   2.0000      -0.780384       -21.2353
  44   2.0000      -0.756528       -20.5862
  45   2.0000      -0.752450       -20.4752
  46   2.0000      -0.720936       -19.6177
  47   2.0000      -0.697839       -18.9892
  48   2.0000      -0.681471       -18.5438
  49   2.0000      -0.668502       -18.1909
  50   2.0000      -0.654319       -17.8049
  51   2.0000      -0.630061       -17.1448
  52   2.0000      -0.622341       -16.9348
  53   2.0000      -0.619500       -16.8574
  54   2.0000      -0.613255       -16.6875
  55   2.0000      -0.594998       -16.1907
  56   2.0000      -0.591697       -16.1009
  57   2.0000      -0.572292       -15.5728
  58   2.0000      -0.561432       -15.2773
  59   2.0000      -0.548078       -14.9140
  60   2.0000      -0.537973       -14.6390
  61   2.0000      -0.527775       -14.3615
  62   2.0000      -0.523481       -14.2447
  63   2.0000      -0.518304       -14.1038
  64   2.0000      -0.515725       -14.0336
  65   2.0000      -0.507814       -13.8183
  66   2.0000      -0.499108       -13.5814
  67   2.0000      -0.498212       -13.5570
  68   2.0000      -0.496124       -13.5002
  69   2.0000      -0.493888       -13.4394
  70   2.0000      -0.491886       -13.3849
  71   2.0000      -0.479525       -13.0485
  72   2.0000      -0.466553       -12.6956
  73   2.0000      -0.462869       -12.5953
  74   2.0000      -0.460028       -12.5180
  75   2.0000      -0.454703       -12.3731
  76   2.0000      -0.453272       -12.3342
  77   2.0000      -0.452317       -12.3082
  78   2.0000      -0.447948       -12.1893
  79   2.0000      -0.435070       -11.8388
  80   2.0000      -0.433916       -11.8074
  81   2.0000      -0.429779       -11.6949
  82   2.0000      -0.421646       -11.4736
  83   2.0000      -0.418910       -11.3991
  84   2.0000      -0.415672       -11.3110
  85   2.0000      -0.397042       -10.8041
  86   2.0000      -0.396083       -10.7780
  87   2.0000      -0.387009       -10.5311
  88   2.0000      -0.383967       -10.4483
  89   2.0000      -0.372479       -10.1357
  90   2.0000      -0.361933        -9.8487
  91   2.0000      -0.346960        -9.4413
  92   2.0000      -0.344460        -9.3732
  93   2.0000      -0.337533        -9.1847
  94   2.0000      -0.330996        -9.0069
  95   2.0000      -0.326190        -8.8761
  96   2.0000      -0.320496        -8.7211
  97   2.0000      -0.308944        -8.4068
  98   2.0000      -0.299866        -8.1598
  99   2.0000      -0.288101        -7.8396
 100   2.0000      -0.275539        -7.4978
 101   2.0000      -0.246373        -6.7041
 102   2.0000      -0.239251        -6.5103
 103   0.0000      -0.056028        -1.5246
 104   0.0000      -0.048706        -1.3254
 105   0.0000      -0.034730        -0.9450
 106   0.0000      -0.027132        -0.7383
 107   0.0000      -0.012329        -0.3355

MULLIKEN ATOMIC CHARGES
-----------------------
   0 C :   -0.111644
   1 C :   -0.142620
   2 C :   -0.011879
   3 N :   -0.123428
   4 C :   -0.029585
   5 C :   -0.145353
   6 C :    0.068395
   7 C :    0.328932
   8 O :   -0.384998
   9 O :   -0.214973
  10 C :   -0.266757
  11 H :    0.175842
  12 H :    0.181681
  13 H :    0.177468
  14 H :    0.177138
  15 H :    0.183225
  16 H :    0.166141
  17 H :    0.158316
  18 C :   -0.172311
  19 C :    0.131702
  20 C :   -0.112085
  21 C :   -0.173999
  22 C :   -0.196587
  23 C :   -0.142309
  24 C :   -0.299064
  25 C :    0.279837
  26 O :   -0.265492
  27 C :   -0.280549
  28 N :    0.474996
  29 O :   -0.491771
  30 H :    0.145563
  31 H :    0.160396
  32 H :    0.147094
  33 H :    0.152788
  34 H :    0.165023
  35 H :    0.151984
  36 H :    0.160530
  37 H :    0.160249
  38 O :   -0.417184
  39 H :    0.156789
  40 H :    0.176247
  41 C :    0.403837
  42 F :   -0.166597
  43 F :   -0.168630
  44 F :   -0.166355
Sum of atomic charges:   -0.0000000

LOEWDIN ATOMIC CHARGES
----------------------
   0 C :   -0.086602
   1 C :   -0.120595
   2 C :   -0.161297
   3 N :    0.256270
   4 C :   -0.156653
   5 C :   -0.121203
   6 C :   -0.057883
   7 C :   -0.525445
   8 O :    0.097789
   9 O :    0.277853
  10 C :   -0.296844
  11 H :    0.165138
  12 H :    0.160153
  13 H :    0.160826
  14 H :    0.165083
  15 H :    0.168942
  16 H :    0.123650
  17 H :    0.120954
  18 C :   -0.210972
  19 C :   -0.177191
  20 C :   -0.106731
  21 C :   -0.104302
  22 C :   -0.163213
  23 C :   -0.142982
  24 C :   -0.137324
  25 C :   -0.236920
  26 O :    0.256464
  27 C :   -0.327134
  28 N :    0.000246
  29 O :   -0.169008
  30 H :    0.189862
  31 H :    0.163182
  32 H :    0.152583
  33 H :    0.155088
  34 H :    0.160907
  35 H :    0.117840
  36 H :    0.122235
  37 H :    0.118432
  38 O :   -0.030715
  39 H :    0.120447
  40 H :    0.165273
  41 C :   -0.666906
  42 F :    0.187359
  43 F :    0.184713
  44 F :    0.208632

  Mayer bond orders larger than 0.100000
B(  0-C ,  1-C ) :   1.4133 B(  0-C ,  5-C ) :   1.4172 B(  0-C , 11-H ) :   0.9479
B(  1-C ,  2-C ) :   1.4445 B(  1-C , 40-H ) :   0.9529 B(  2-C ,  3-N ) :   1.3144
B(  2-C , 12-H ) :   0.9323 B(  3-N ,  4-C ) :   1.3684 B(  3-N ,  6-C ) :   0.3327
B(  4-C ,  5-C ) :   1.4332 B(  4-C , 13-H ) :   0.9377 B(  5-C , 14-H ) :   0.9526
B(  6-C ,  7-C ) :   0.9555 B(  6-C , 15-H ) :   0.9413 B(  6-C , 19-C ) :   1.0452
B(  6-C , 38-O ) :   0.3362 B(  7-C ,  8-O ) :   1.9828 B(  7-C ,  9-O ) :   1.2859
B(  9-O , 10-C ) :   0.8835 B( 10-C , 16-H ) :   0.9639 B( 10-C , 17-H ) :   0.9669
B( 10-C , 39-H ) :   0.9653 B( 18-C , 19-C ) :   0.8955 B( 18-C , 28-N ) :   1.5517
B( 18-C , 29-O ) :   0.1592 B( 18-C , 38-O ) :   0.1006 B( 18-C , 41-C ) :   1.0805
B( 19-C , 20-C ) :   0.8259 B( 19-C , 30-H ) :   0.9393 B( 20-C , 21-C ) :   1.3666
B( 20-C , 25-C ) :   1.2999 B( 21-C , 22-C ) :   1.4077 B( 21-C , 31-H ) :   0.9724
B( 22-C , 23-C ) :   1.3953 B( 22-C , 32-H ) :   0.9822 B( 23-C , 24-C ) :   1.3999
B( 23-C , 33-H ) :   0.9667 B( 24-C , 25-C ) :   1.3689 B( 24-C , 34-H ) :   0.9599
B( 25-C , 26-O ) :   1.1018 B( 26-O , 27-C ) :   0.9347 B( 27-C , 35-H ) :   0.9640
B( 27-C , 36-H ) :   0.9643 B( 27-C , 37-H ) :   0.9574 B( 28-N , 29-O ) :   1.4337
B( 28-N , 38-O ) :   1.1012 B( 41-C , 42-F ) :   1.1622 B( 41-C , 43-F ) :   1.1552
B( 41-C , 44-F ) :   1.1421

Dispersion correction           -0.058075007
FINAL SINGLE POINT ENERGY     -1480.189313160009

DIPOLE MOMENT
-------------
                                X             Y             Z
Electronic contribution:     28.71490      -1.49670       5.30054
Nuclear contribution   :    -36.52680       0.54621      -4.90017
                        -----------------------------------------
Total Dipole Moment    :     -7.81190      -0.95049       0.40037
                        -----------------------------------------
Magnitude (a.u.)       :      7.87969
Magnitude (Debye)      :     20.02859

Dispersion correction in the Hessian             ... done   (      0.7 sec)

VIBRATIONAL FREQUENCIES
-----------------------

Scaling factor for frequencies =  1.000000000  (already applied!)

   0:         0.00 cm**-1
   1:         0.00 cm**-1
   2:         0.00 cm**-1
   3:         0.00 cm**-1
   4:         0.00 cm**-1
   5:         0.00 cm**-1
   6:      -541.21 cm**-1 ***imaginary mode***
   7:        21.12 cm**-1
   8:        33.08 cm**-1
   9:        35.92 cm**-1
  10:        43.94 cm**-1
  11:        53.14 cm**-1
  12:        54.69 cm**-1
  13:        61.68 cm**-1
  14:        71.28 cm**-1
  15:        91.07 cm**-1
  16:       101.30 cm**-1
  17:       108.59 cm**-1
  18:       129.80 cm**-1
  19:       147.17 cm**-1
  20:       153.04 cm**-1
  21:       162.25 cm**-1
  22:       165.20 cm**-1
  23:       181.06 cm**-1
  24:       191.43 cm**-1
  25:       211.62 cm**-1
  26:       229.03 cm**-1
  27:       237.26 cm**-1
  28:       249.82 cm**-1
  29:       252.06 cm**-1
  30:       270.17 cm**-1
  31:       306.21 cm**-1
  32:       313.74 cm**-1
  33:       346.59 cm**-1
  34:       370.80 cm**-1
  35:       394.22 cm**-1
  36:       438.36 cm**-1
  37:       442.36 cm**-1
  38:       462.88 cm**-1
  39:       487.89 cm**-1
  40:       500.73 cm**-1
  41:       540.33 cm**-1
  42:       563.03 cm**-1
  43:       573.53 cm**-1
  44:       597.83 cm**-1
  45:       615.92 cm**-1
  46:       631.02 cm**-1
  47:       636.32 cm**-1
  48:       659.99 cm**-1
  49:       701.82 cm**-1
  50:       710.75 cm**-1
  51:       730.81 cm**-1
  52:       743.87 cm**-1
  53:       765.79 cm**-1
  54:       769.47 cm**-1
  55:       773.44 cm**-1
  56:       777.80 cm**-1
  57:       782.36 cm**-1
  58:       810.18 cm**-1
  59:       834.82 cm**-1
  60:       873.08 cm**-1
  61:       881.84 cm**-1
  62:       893.31 cm**-1
  63:       963.92 cm**-1
  64:       970.83 cm**-1
  65:       978.52 cm**-1
  66:       995.73 cm**-1
  67:      1014.04 cm**-1
  68:      1015.14 cm**-1
  69:      1031.29 cm**-1
  70:      1040.33 cm**-1
  71:      1052.02 cm**-1
  72:      1060.45 cm**-1
  73:      1071.63 cm**-1
  74:      1083.67 cm**-1
  75:      1094.70 cm**-1
  76:      1100.56 cm**-1
  77:      1102.14 cm**-1
  78:      1112.52 cm**-1
  79:      1133.78 cm**-1
  80:      1141.20 cm**-1
  81:      1168.63 cm**-1
  82:      1170.59 cm**-1
  83:      1171.45 cm**-1
  84:      1174.93 cm**-1
  85:      1191.20 cm**-1
  86:      1196.07 cm**-1
  87:      1205.67 cm**-1
  88:      1212.67 cm**-1
  89:      1220.83 cm**-1
  90:      1238.90 cm**-1
  91:      1246.22 cm**-1
  92:      1283.43 cm**-1
  93:      1292.85 cm**-1
  94:      1304.43 cm**-1
  95:      1321.33 cm**-1
  96:      1336.92 cm**-1
  97:      1340.78 cm**-1
  98:      1380.02 cm**-1
  99:      1388.39 cm**-1
 100:      1421.35 cm**-1
 101:      1441.14 cm**-1
 102:      1466.01 cm**-1
 103:      1466.33 cm**-1
 104:      1473.00 cm**-1
 105:      1473.08 cm**-1
 106:      1479.82 cm**-1
 107:      1482.23 cm**-1
 108:      1493.63 cm**-1
 109:      1498.09 cm**-1
 110:      1529.23 cm**-1
 111:      1538.24 cm**-1
 112:      1636.14 cm**-1
 113:      1648.67 cm**-1
 114:      1650.70 cm**-1
 115:      1663.82 cm**-1
 116:      1665.82 cm**-1
 117:      1785.15 cm**-1
 118:      3038.39 cm**-1
 119:      3073.12 cm**-1
 120:      3110.49 cm**-1
 121:      3125.72 cm**-1
 122:      3157.32 cm**-1
 123:      3165.99 cm**-1
 124:      3184.65 cm**-1
 125:      3193.15 cm**-1
 126:      3196.22 cm**-1
 127:      3199.73 cm**-1
 128:      3202.24 cm**-1
 129:      3212.62 cm**-1
 130:      3214.70 cm**-1
 131:      3229.85 cm**-1
 132:      3232.32 cm**-1
 133:      3234.11 cm**-1
 134:      3277.34 cm**-1

IR SPECTRUM
-----------

 Mode   freq       eps      Int      T**2         TX        TY        TZ
       cm**-1   L/(mol*cm) km/mol    a.u.
----------------------------------------------------------------------------
  7:     21.12   0.000093    0.47  0.001376  (-0.015493 -0.005598 -0.033233)
  8:     33.08   0.000081    0.41  0.000764  (-0.017402  0.021284 -0.002818)
  9:     35.92   0.000109    0.55  0.000950  ( 0.022949 -0.017709 -0.010453)
 10:     43.94   0.000079    0.40  0.000560  ( 0.023413  0.002945  0.001714)
 11:     53.14   0.000231    1.17  0.001357  (-0.004930 -0.024254 -0.027284)
 12:     54.69   0.000601    3.04  0.003432  ( 0.056673 -0.003068  0.014516)
 13:     61.68   0.000247    1.25  0.001249  ( 0.024737 -0.025241 -0.000462)
 14:     71.28   0.000483    2.44  0.002117  (-0.034704  0.002191  0.030123)
 15:     91.07   0.000787    3.98  0.002696  (-0.018811  0.027423  0.039882)
 16:    101.30   0.001240    6.26  0.003819  (-0.042288  0.038120 -0.024028)
 17:    108.59   0.000172    0.87  0.000494  (-0.003108  0.021407  0.005057)
 18:    129.80   0.000371    1.88  0.000892  ( 0.006477 -0.021627 -0.019564)
 19:    147.17   0.000472    2.39  0.001001  ( 0.023770 -0.016824 -0.012377)
 20:    153.04   0.000369    1.87  0.000753  ( 0.014320  0.016589 -0.016513)
 21:    162.25   0.000444    2.24  0.000854  ( 0.029200  0.000733 -0.000701)
 22:    165.20   0.004356   22.01  0.008228  ( 0.087676 -0.010269 -0.020854)
 23:    181.06   0.001051    5.31  0.001812  (-0.027256 -0.010068 -0.031103)
 24:    191.43   0.002889   14.60  0.004710  (-0.067852 -0.007349  0.007201)
 25:    211.62   0.000029    0.15  0.000043  (-0.002001  0.002356  0.005787)
 26:    229.03   0.000089    0.45  0.000121  (-0.006331 -0.000546  0.009004)
 27:    237.26   0.001793    9.06  0.002359  ( 0.040065 -0.021044 -0.017622)
 28:    249.82   0.000294    1.49  0.000368  (-0.013080  0.002384  0.013823)
 29:    252.06   0.000316    1.60  0.000392  (-0.016829 -0.007332  0.007401)
 30:    270.17   0.003310   16.73  0.003823  (-0.010499  0.057251 -0.020869)
 31:    306.21   0.000647    3.27  0.000659  ( 0.011939  0.017527  0.014466)
 32:    313.74   0.000416    2.10  0.000414  ( 0.012058 -0.008418  0.014069)
 33:    346.59   0.006522   32.96  0.005873  (-0.050078  0.056084 -0.014814)
 34:    370.80   0.001959    9.90  0.001648  ( 0.012945  0.027228 -0.027192)
 35:    394.22   0.000004    0.02  0.000003  ( 0.001552 -0.000554  0.000690)
 36:    438.36   0.001300    6.57  0.000925  (-0.009464 -0.028116 -0.006711)
 37:    442.36   0.000590    2.98  0.000416  ( 0.004096 -0.014449 -0.013808)
 38:    462.88   0.001368    6.91  0.000922  (-0.004427  0.025078 -0.016545)
 39:    487.89   0.003064   15.49  0.001960  (-0.028333 -0.033812 -0.003749)
 40:    500.73   0.002106   10.64  0.001312  ( 0.008338 -0.016705  0.031044)
 41:    540.33   0.003038   15.35  0.001754  (-0.041691  0.003617 -0.001802)
 42:    563.03   0.000401    2.03  0.000222  (-0.005892  0.013577  0.001774)
 43:    573.53   0.002124   10.74  0.001156  ( 0.012548 -0.023607 -0.021002)
 44:    597.83   0.000837    4.23  0.000437  ( 0.005142  0.002126 -0.020153)
 45:    615.92   0.004332   21.89  0.002195  ( 0.039875  0.019555  0.014910)
 46:    631.02   0.006981   35.28  0.003452  ( 0.048369 -0.032616  0.006987)
 47:    636.32   0.003486   17.62  0.001710  ( 0.041215 -0.002268 -0.002439)
 48:    659.99   0.000095    0.48  0.000045  (-0.006582 -0.001189 -0.000135)
 49:    701.82   0.003321   16.78  0.001477  ( 0.038323  0.001349 -0.002455)
 50:    710.75   0.021072  106.49  0.009252  ( 0.032267 -0.088498  0.019466)
 51:    730.81   0.005691   28.76  0.002430  ( 0.006665 -0.047320  0.012096)
 52:    743.87   0.004523   22.86  0.001898  (-0.022907 -0.001009 -0.037037)
 53:    765.79   0.006172   31.19  0.002515  ( 0.029485 -0.039968  0.006934)
 54:    769.47   0.011503   58.13  0.004665  (-0.064395  0.003150 -0.022546)
 55:    773.44   0.010272   51.91  0.004144  ( 0.031405 -0.037408  0.041938)
 56:    777.80   0.003669   18.54  0.001472  ( 0.024503 -0.029468 -0.001770)
 57:    782.36   0.008800   44.47  0.003510  ( 0.041615 -0.037023 -0.020192)
 58:    810.18   0.003954   19.98  0.001523  ( 0.005507  0.013257  0.036290)
 59:    834.82   0.000321    1.62  0.000120  ( 0.002367  0.009666 -0.004566)
 60:    873.08   0.002206   11.15  0.000788  (-0.017468  0.021835  0.002550)
 61:    881.84   0.001482    7.49  0.000525  (-0.007137 -0.017526 -0.012902)
 62:    893.31   0.000009    0.05  0.000003  (-0.000955  0.000452 -0.001468)
 63:    963.92   0.001188    6.00  0.000385  ( 0.011912 -0.002393  0.015396)
 64:    970.83   0.001361    6.88  0.000437  (-0.002148  0.015210  0.014197)
 65:    978.52   0.000208    1.05  0.000066  (-0.001216 -0.008006 -0.000915)
 66:    995.73   0.000089    0.45  0.000028  (-0.002861  0.004412  0.000494)
 67:   1014.04   0.066243  334.76  0.020386  (-0.075887  0.105402 -0.059306)
 68:   1015.14   0.004887   24.70  0.001502  (-0.018551  0.030417 -0.015262)
 69:   1031.29   0.021818  110.26  0.006602  ( 0.063694 -0.025330  0.043629)
 70:   1040.33   0.000017    0.09  0.000005  (-0.001148  0.000826  0.001766)
 71:   1052.02   0.025990  131.34  0.007710  (-0.013194  0.044206 -0.074708)
 72:   1060.45   0.000148    0.75  0.000044  ( 0.005604  0.000005 -0.003488)
 73:   1071.63   0.012880   65.09  0.003751  ( 0.029779  0.051608 -0.014165)
 74:   1083.67   0.009661   48.82  0.002782  ( 0.024154  0.009765 -0.045862)
 75:   1094.70   0.004699   23.75  0.001339  (-0.023406  0.026585 -0.009214)
 76:   1100.56   0.094448  477.30  0.026781  ( 0.010819 -0.118664 -0.112171)
 77:   1102.14   0.032724  165.38  0.009266  (-0.046552 -0.064693  0.053975)
 78:   1112.52   0.000371    1.87  0.000104  ( 0.004538  0.001400  0.009025)
 79:   1133.78   0.034854  176.14  0.009593  (-0.075749 -0.047183  0.040362)
 80:   1141.20   0.011048   55.83  0.003021  ( 0.041430 -0.010346  0.034606)
 81:   1168.63   0.000817    4.13  0.000218  ( 0.003114  0.006571  0.012858)
 82:   1170.59   0.000221    1.12  0.000059  (-0.007184  0.001306 -0.002362)
 83:   1171.45   0.000471    2.38  0.000126  (-0.010817  0.000987  0.002750)
 84:   1174.93   0.002524   12.76  0.000670  (-0.012467 -0.017927  0.013918)
 85:   1191.20   0.011126   56.23  0.002915  (-0.011288 -0.050679  0.014793)
 86:   1196.07   0.008401   42.46  0.002192  (-0.001712 -0.046757  0.001678)
 87:   1205.67   0.010680   53.97  0.002764  ( 0.050057 -0.007320 -0.014319)
 88:   1212.67   0.002216   11.20  0.000570  ( 0.017535  0.012803 -0.009939)
 89:   1220.83   0.007978   40.32  0.002039  ( 0.000969 -0.045147  0.000387)
 90:   1238.90   0.007399   37.39  0.001864  ( 0.041193 -0.012507 -0.003244)
 91:   1246.22   0.039890  201.59  0.009989  (-0.054284  0.079217 -0.027691)
 92:   1283.43   0.027834  140.66  0.006768  ( 0.074549 -0.027293 -0.021571)
 93:   1292.85   0.093590  472.96  0.022590  ( 0.031058 -0.125805  0.076150)
 94:   1304.43   0.069419  350.82  0.016607  ( 0.059893  0.017771 -0.112714)
 95:   1321.33   0.012960   65.49  0.003061  ( 0.040143 -0.018691 -0.033165)
 96:   1336.92   0.044485  224.81  0.010384  ( 0.097585  0.023225 -0.017929)
 97:   1340.78   0.000988    4.99  0.000230  ( 0.002199  0.009518  0.011598)
 98:   1380.02   0.020577  103.99  0.004653  ( 0.043718  0.043355 -0.029360)
 99:   1388.39   0.002609   13.19  0.000587  (-0.000463  0.004760 -0.023741)
100:   1421.35   0.011829   59.78  0.002597  ( 0.036729  0.033363  0.011622)
101:   1441.14   0.077465  391.48  0.016774  (-0.105263  0.052717 -0.053991)
102:   1466.01   0.003982   20.12  0.000848  (-0.026928  0.001261  0.010997)
103:   1466.33   0.005302   26.79  0.001128  ( 0.006319 -0.010809 -0.031171)
104:   1473.00   0.006320   31.94  0.001339  (-0.006581  0.028914 -0.021439)
105:   1473.08   0.002813   14.21  0.000596  ( 0.019478 -0.014198  0.003858)
106:   1479.82   0.016790   84.85  0.003541  (-0.002666 -0.058932 -0.007788)
107:   1482.23   0.005217   26.36  0.001098  ( 0.004809 -0.010498 -0.031065)
108:   1493.63   0.016708   84.43  0.003491  ( 0.010108  0.002011  0.058177)
109:   1498.09   0.011813   59.70  0.002461  (-0.024294  0.000041  0.043249)
110:   1529.23   0.000460    2.32  0.000094  ( 0.009078  0.003365 -0.000305)
111:   1538.24   0.038496  194.54  0.007810  (-0.038265  0.008512  0.079202)
112:   1636.14   0.159572  806.41  0.030435  ( 0.112902  0.113834 -0.068778)
113:   1648.67   0.001778    8.99  0.000337  (-0.001262 -0.001608 -0.018231)
114:   1650.70   0.002084   10.53  0.000394  ( 0.010510  0.016785  0.001357)
115:   1663.82   0.012759   64.48  0.002393  ( 0.011159 -0.019299 -0.043543)
116:   1665.82   0.010996   55.57  0.002060  ( 0.043247  0.010353 -0.009074)
117:   1785.15   0.090331  456.50  0.015791  ( 0.049819 -0.003677  0.115305)
118:   3038.39   0.012284   62.08  0.001262  (-0.021858 -0.019509  0.020081)
119:   3073.12   0.005498   27.79  0.000558  (-0.000952  0.022931  0.005621)
120:   3110.49   0.007732   39.08  0.000776  ( 0.019897 -0.015284  0.012093)
121:   3125.72   0.000782    3.95  0.000078  ( 0.000656  0.008424 -0.002584)
122:   3157.32   0.003603   18.21  0.000356  (-0.017225 -0.003406  0.006915)
123:   3165.99   0.003601   18.20  0.000355  ( 0.002386 -0.009654 -0.016002)
124:   3184.65   0.000497    2.51  0.000049  ( 0.004340  0.005277 -0.001432)
125:   3193.15   0.001928    9.75  0.000188  (-0.005296  0.006579 -0.010823)
126:   3196.22   0.001308    6.61  0.000128  ( 0.005108  0.009817  0.002289)
127:   3199.73   0.000415    2.10  0.000040  ( 0.005229  0.001510  0.003298)
128:   3202.24   0.001173    5.93  0.000114  ( 0.010068  0.003594 -0.000292)
129:   3212.62   0.000045    0.23  0.000004  (-0.001126  0.000316  0.001742)
130:   3214.70   0.002729   13.79  0.000265  (-0.003840  0.006269  0.014520)
131:   3229.85   0.000188    0.95  0.000018  ( 0.000732  0.000795  0.004127)
132:   3232.32   0.000456    2.31  0.000044  (-0.003782 -0.004695  0.002777)
133:   3234.11   0.000325    1.64  0.000031  (-0.005437 -0.000973  0.000908)
134:   3277.34   0.000321    1.62  0.000031  (-0.003582 -0.000082  0.004211)

--------------------------
THERMOCHEMISTRY AT 298.15K
--------------------------

Temperature         ... 298.15 K
Pressure            ... 1.00 atm
Total Mass          ... 398.34 AMU

Throughout the following assumptions are being made:
  (1) The electronic state is orbitally nondegenerate
  (2) There are no thermally accessible electronically excited states
  (3) Hindered rotations indicated by low frequency modes are not
      treated as such but are treated as vibrations and this may
      cause some error
  (4) All equations used are the standard statistical mechanics
      equations for an ideal gas
  (5) All vibrations are strictly harmonic

freq.      21.12  E(vib)   ...       0.56
freq.      33.08  E(vib)   ...       0.55
freq.      35.92  E(vib)   ...       0.54
freq.      43.94  E(vib)   ...       0.53
freq.      53.14  E(vib)   ...       0.52
freq.      54.69  E(vib)   ...       0.52
freq.      61.68  E(vib)   ...       0.51
freq.      71.28  E(vib)   ...       0.50
freq.      91.07  E(vib)   ...       0.47
freq.     101.30  E(vib)   ...       0.46
freq.     108.59  E(vib)   ...       0.45
freq.     129.80  E(vib)   ...       0.43
freq.     147.17  E(vib)   ...       0.41
freq.     153.04  E(vib)   ...       0.40
freq.     162.25  E(vib)   ...       0.39
freq.     165.20  E(vib)   ...       0.39
freq.     181.06  E(vib)   ...       0.37
freq.     191.43  E(vib)   ...       0.36
freq.     211.62  E(vib)   ...       0.34
freq.     229.03  E(vib)   ...       0.32
freq.     237.26  E(vib)   ...       0.32
freq.     249.82  E(vib)   ...       0.31
freq.     252.06  E(vib)   ...       0.30
freq.     270.17  E(vib)   ...       0.29
freq.     306.21  E(vib)   ...       0.26
freq.     313.74  E(vib)   ...       0.25
freq.     346.59  E(vib)   ...       0.23
freq.     370.80  E(vib)   ...       0.21
freq.     394.22  E(vib)   ...       0.20
freq.     438.36  E(vib)   ...       0.17
freq.     442.36  E(vib)   ...       0.17
freq.     462.88  E(vib)   ...       0.16
freq.     487.89  E(vib)   ...       0.15
freq.     500.73  E(vib)   ...       0.14
freq.     540.33  E(vib)   ...       0.12
freq.     563.03  E(vib)   ...       0.11
freq.     573.53  E(vib)   ...       0.11
freq.     597.83  E(vib)   ...       0.10
freq.     615.92  E(vib)   ...       0.10
freq.     631.02  E(vib)   ...       0.09
freq.     636.32  E(vib)   ...       0.09
freq.     659.99  E(vib)   ...       0.08
freq.     701.82  E(vib)   ...       0.07
freq.     710.75  E(vib)   ...       0.07
freq.     730.81  E(vib)   ...       0.06
freq.     743.87  E(vib)   ...       0.06
freq.     765.79  E(vib)   ...       0.06
freq.     769.47  E(vib)   ...       0.06
freq.     773.44  E(vib)   ...       0.05
freq.     777.80  E(vib)   ...       0.05
freq.     782.36  E(vib)   ...       0.05
freq.     810.18  E(vib)   ...       0.05
freq.     834.82  E(vib)   ...       0.04
freq.     873.08  E(vib)   ...       0.04
freq.     881.84  E(vib)   ...       0.04
freq.     893.31  E(vib)   ...       0.03
freq.     963.92  E(vib)   ...       0.03
freq.     970.83  E(vib)   ...       0.03
freq.     978.52  E(vib)   ...       0.03
freq.     995.73  E(vib)   ...       0.02
freq.    1014.04  E(vib)   ...       0.02
freq.    1015.14  E(vib)   ...       0.02
freq.    1031.29  E(vib)   ...       0.02
freq.    1040.33  E(vib)   ...       0.02
freq.    1052.02  E(vib)   ...       0.02
freq.    1060.45  E(vib)   ...       0.02
freq.    1071.63  E(vib)   ...       0.02
freq.    1083.67  E(vib)   ...       0.02
freq.    1094.70  E(vib)   ...       0.02
freq.    1100.56  E(vib)   ...       0.02
freq.    1102.14  E(vib)   ...       0.02
freq.    1112.52  E(vib)   ...       0.01
freq.    1133.78  E(vib)   ...       0.01
freq.    1141.20  E(vib)   ...       0.01
freq.    1168.63  E(vib)   ...       0.01
freq.    1170.59  E(vib)   ...       0.01
freq.    1171.45  E(vib)   ...       0.01
freq.    1174.93  E(vib)   ...       0.01
freq.    1191.20  E(vib)   ...       0.01
freq.    1196.07  E(vib)   ...       0.01
freq.    1205.67  E(vib)   ...       0.01
freq.    1212.67  E(vib)   ...       0.01
freq.    1220.83  E(vib)   ...       0.01
freq.    1238.90  E(vib)   ...       0.01
freq.    1246.22  E(vib)   ...       0.01
freq.    1283.43  E(vib)   ...       0.01
freq.    1292.85  E(vib)   ...       0.01
freq.    1304.43  E(vib)   ...       0.01
freq.    1321.33  E(vib)   ...       0.01
freq.    1336.92  E(vib)   ...       0.01
freq.    1340.78  E(vib)   ...       0.01
freq.    1380.02  E(vib)   ...       0.01
freq.    1388.39  E(vib)   ...       0.00
freq.    1421.35  E(vib)   ...       0.00
freq.    1441.14  E(vib)   ...       0.00
freq.    1466.01  E(vib)   ...       0.00
freq.    1466.33  E(vib)   ...       0.00
freq.    1473.00  E(vib)   ...       0.00
freq.    1473.08  E(vib)   ...       0.00
freq.    1479.82  E(vib)   ...       0.00
freq.    1482.23  E(vib)   ...       0.00
freq.    1493.63  E(vib)   ...       0.00
freq.    1498.09  E(vib)   ...       0.00
freq.    1529.23  E(vib)   ...       0.00
freq.    1538.24  E(vib)   ...       0.00
freq.    1636.14  E(vib)   ...       0.00
freq.    1648.67  E(vib)   ...       0.00
freq.    1650.70  E(vib)   ...       0.00
freq.    1663.82  E(vib)   ...       0.00
freq.    1665.82  E(vib)   ...       0.00
freq.    1785.15  E(vib)   ...       0.00
freq.    3038.39  E(vib)   ...       0.00
freq.    3073.12  E(vib)   ...       0.00
freq.    3110.49  E(vib)   ...       0.00
freq.    3125.72  E(vib)   ...       0.00
freq.    3157.32  E(vib)   ...       0.00
freq.    3165.99  E(vib)   ...       0.00
freq.    3184.65  E(vib)   ...       0.00
freq.    3193.15  E(vib)   ...       0.00
freq.    3196.22  E(vib)   ...       0.00
freq.    3199.73  E(vib)   ...       0.00
freq.    3202.24  E(vib)   ...       0.00
freq.    3212.62  E(vib)   ...       0.00
freq.    3214.70  E(vib)   ...       0.00
freq.    3229.85  E(vib)   ...       0.00
freq.    3232.32  E(vib)   ...       0.00
freq.    3234.11  E(vib)   ...       0.00
freq.    3277.34  E(vib)   ...       0.00

------------
INNER ENERGY
------------

The inner energy is: U= E(el) + E(ZPE) + E(vib) + E(rot) + E(trans)
    E(el)   - is the total energy from the electronic structure calculation
              = E(kin-el) + E(nuc-el) + E(el-el) + E(nuc-nuc)
    E(ZPE)  - the the zero temperature vibrational energy from the frequency calculation
    E(vib)  - the the finite temperature correction to E(ZPE) due to population
              of excited vibrational states
    E(rot)  - is the rotational thermal energy
    E(trans)- is the translational thermal energy

Summary of contributions to the inner energy U:
Electronic energy                ...  -1480.18931316 Eh

Rotational constants in cm-1:     0.007412     0.006098     0.004394

                             ****ORCA TERMINATED NORMALLY****
TOTAL RUN TIME: 0 days 3 hours 15 minutes 1 seconds 517 msec
