                         Program Version 5.0.4 -  RELEASE  -
|  1> %pal nprocs 24 end
|  2> %maxcore 3500
|  3> ! PBE0 D3BJ def2-TZVP TightSCF OPTTS FREQ TightOpt
|  4> ! CPCM(dmso)
|  5> %scf
|  6> MaxIter 800
|  7> end
|  8>
|  9> %geom
| 10> MaxIter 800
| 11> MaxStep 0.2
| 12> end
| 13>
| 14> *xyz 0 1
| 15> C      -3.11334600      2.89873800     -0.12849500
| 16> C      -2.16489600      2.90934400      0.88174000
| 17> C      -0.97610900      2.23343700      0.68201200
| 18> N      -0.72172700      1.59005200     -0.45268900
| 19> C      -1.62110800      1.57740100     -1.43010400
| 20> C      -2.83804700      2.22019600     -1.30547800
| 21> C       0.93977200      0.53208500     -0.78925700
| 22> C       1.81184900      1.70330400     -0.47048200
| 23> O       2.08185900      2.57013100     -1.26329900
| 24> O       2.22543800      1.67193000      0.78768600
| 25> C       3.08652400      2.74073300      1.19388000
| 26> H      -4.05851900      3.41236300      0.00068400
| 27> H      -0.20918700      2.20012900      1.44741900
| 28> H      -1.36049500      1.02898000     -2.32875200
| 29> H      -3.55124600      2.18339500     -2.11849400
| 30> H       0.61470600      0.46017200     -1.81316100
| 31> H       3.31886900      2.54855500      2.23769800
| 32> H       2.57500200      3.69704900      1.08508500
| 33> C       1.81648000     -1.41140700      0.43397900
| 34> C       0.60591600     -0.56354500      0.20571100
| 35> C      -0.58095800     -1.37438100     -0.27158700
| 36> C      -0.48552500     -2.13583400     -1.42641000
| 37> C      -1.56657900     -2.85874800     -1.90920600
| 38> C      -2.76585500     -2.82150500     -1.21590300
| 39> C      -2.88524800     -2.07667300     -0.05123400
| 40> C      -1.79514800     -1.35398500      0.42571500
| 41> O      -1.83018400     -0.61193000      1.55384900
| 42> C      -3.05696600     -0.50069500      2.24807300
| 43> N       2.78552100     -1.24034300     -0.43966200
| 44> O       3.87984900     -1.84571100     -0.46961700
| 45> H       0.34562600     -0.09242600      1.15437300
| 46> H       0.45924100     -2.15700800     -1.96066200
| 47> H      -1.47133800     -3.44342300     -2.81617300
| 48> H      -3.62318500     -3.37855800     -1.57655500
| 49> H      -3.82709600     -2.06317900      0.48022900
| 50> H      -2.86716100      0.16552700      3.08707300
| 51> H      -3.39010900     -1.47290300      2.62184100
| 52> H      -3.83258500     -0.06960000      1.60902700
| 53> O       2.57192200     -0.32933500     -1.36995200
| 54> H       3.99540000      2.73807700      0.59239400
| 55> H      -2.33876000      3.42519000      1.81699300
| 56> C       1.95335600     -2.34535900      1.50763900
| 57> H       2.88273500     -2.90535200      1.51604100
| 58> C       1.03729700     -2.55442400      2.46179800
| 59> H       0.09578300     -2.01691000      2.48899800
| 60> H       1.21772100     -3.27813300      3.24691300
| 61> *
| 62>
| 63>                          ****END OF INPUT****
 Total Charge           Charge          ....    0
 Multiplicity           Mult            ....    1
 Number of Electrons    NEL             ....  188
Dispersion correction           -0.060504721
FINAL SINGLE POINT ENERGY     -1220.652921135927
Dispersion correction            ... done
Dispersion correction           -0.060719650
FINAL SINGLE POINT ENERGY     -1220.651762048187
Dispersion correction            ... done
Dispersion correction           -0.060804395
FINAL SINGLE POINT ENERGY     -1220.649395517134
Dispersion correction            ... done
FINAL SINGLE POINT ENERGY     -1220.651131334704
FINAL SINGLE POINT ENERGY     -1220.651541074723
FINAL SINGLE POINT ENERGY     -1220.651635088878
FINAL SINGLE POINT ENERGY     -1220.652707788435
FINAL SINGLE POINT ENERGY     -1220.652455136600
FINAL SINGLE POINT ENERGY     -1220.652921955182
FINAL SINGLE POINT ENERGY     -1220.652852399538
FINAL SINGLE POINT ENERGY     -1220.652934038002
FINAL SINGLE POINT ENERGY     -1220.652933889179
FINAL SINGLE POINT ENERGY     -1220.652933559441
FINAL SINGLE POINT ENERGY     -1220.652933162856
FINAL SINGLE POINT ENERGY     -1220.652933333252
FINAL SINGLE POINT ENERGY     -1220.652933051312
FINAL SINGLE POINT ENERGY     -1220.652933173596
Dispersion correction           -0.060530076
FINAL SINGLE POINT ENERGY     -1220.652932909629
Dispersion correction            ... done
Dispersion correction           -0.060534188
FINAL SINGLE POINT ENERGY     -1220.652932519356
Dispersion correction            ... done
                    ***********************HURRAY********************

CARTESIAN COORDINATES (ANGSTROEM)
---------------------------------
  C     -3.119507    2.892222   -0.112869
  C     -2.164452    2.906928    0.891380
  C     -0.975761    2.232065    0.685875
  N     -0.727012    1.587597   -0.449819
  C     -1.632235    1.571320   -1.422201
  C     -2.850227    2.211320   -1.290260
  C      0.939371    0.526761   -0.787635
  C      1.812590    1.699139   -0.477315
  O      2.078570    2.562372   -1.275231
  O      2.230233    1.673271    0.779191
  C      3.093132    2.742562    1.180354
  H     -4.064996    3.404228    0.021243
  H     -0.204474    2.200664    1.447122
  H     -1.375234    1.022463   -2.321654
  H     -3.568803    2.170728   -2.098446
  H      0.614754    0.449359   -1.811367
  H      3.328232    2.552175    2.223927
  H      2.581813    3.698967    1.071412
  C      1.822318   -1.411907    0.441778
  C      0.608889   -0.568414    0.208651
  C     -0.578127   -1.379116   -0.270571
  C     -0.481598   -2.137688   -1.427660
  C     -1.565166   -2.851920   -1.918677
  C     -2.767940   -2.809762   -1.231141
  C     -2.888227   -2.068999   -0.063626
  C     -1.795720   -1.354723    0.421714
  O     -1.832158   -0.616545    1.552728
  C     -3.063076   -0.496301    2.238725
  N      2.795739   -1.239622   -0.427595
  O      3.895625   -1.836085   -0.442912
  H      0.346773   -0.096572    1.156733
  H      0.465392   -2.161844   -1.957883
  H     -1.469368   -3.433162   -2.827819
  H     -3.627306   -3.359040   -1.598956
  H     -3.832796   -2.050865    0.463070
  H     -2.872850    0.164190    3.082156
  H     -3.408786   -1.466742    2.605660
  H     -3.829578   -0.054629    1.595786
  O      2.582829   -0.339276   -1.367842
  H      4.000233    2.738270    0.576255
  H     -2.333444    3.423973    1.827018
  C      1.958987   -2.340869    1.520020
  H      2.892185   -2.894366    1.535495
  C      1.038540   -2.555229    2.468963
  H      0.092563   -2.025139    2.489541
  H      1.219560   -3.276339    3.256359

 Multiplicity           Mult            ....    1
 Number of Electrons    NEL             ....  188
 Basis Dimension        Dim             ....  926

ORBITAL ENERGIES
----------------

  NO   OCC          E(Eh)            E(eV)
   0   2.0000     -19.269339      -524.3454
   1   2.0000     -19.246215      -523.7161
   2   2.0000     -19.218893      -522.9727
   3   2.0000     -19.203545      -522.5550
   4   2.0000     -19.189258      -522.1663
   5   2.0000     -14.565237      -396.3402
   6   2.0000     -14.442577      -393.0025
   7   2.0000     -10.367887      -282.1246
   8   2.0000     -10.327142      -281.0158
   9   2.0000     -10.291493      -280.0457
  10   2.0000     -10.285483      -279.8822
  11   2.0000     -10.285424      -279.8806
  12   2.0000     -10.272523      -279.5296
  13   2.0000     -10.266976      -279.3786
  14   2.0000     -10.261570      -279.2315
  15   2.0000     -10.260305      -279.1971
  16   2.0000     -10.259074      -279.1636
  17   2.0000     -10.250920      -278.9417
  18   2.0000     -10.250691      -278.9355
  19   2.0000     -10.239874      -278.6411
  20   2.0000     -10.231894      -278.4240
  21   2.0000     -10.230024      -278.3731
  22   2.0000     -10.229806      -278.3672
  23   2.0000     -10.226352      -278.2732
  24   2.0000     -10.222071      -278.1567
  25   2.0000     -10.215138      -277.9681
  26   2.0000      -1.202767       -32.7290
  27   2.0000      -1.158219       -31.5167
  28   2.0000      -1.109262       -30.1846
  29   2.0000      -1.064200       -28.9583
  30   2.0000      -1.028574       -27.9889
  31   2.0000      -1.018980       -27.7279
  32   2.0000      -0.905722       -24.6460
  33   2.0000      -0.879185       -23.9238
  34   2.0000      -0.857843       -23.3431
  35   2.0000      -0.831406       -22.6237
  36   2.0000      -0.815732       -22.1972
  37   2.0000      -0.793752       -21.5991
  38   2.0000      -0.784924       -21.3589
  39   2.0000      -0.778595       -21.1866
  40   2.0000      -0.749607       -20.3978
  41   2.0000      -0.719966       -19.5913
  42   2.0000      -0.697743       -18.9865
  43   2.0000      -0.681228       -18.5371
  44   2.0000      -0.668724       -18.1969
  45   2.0000      -0.636148       -17.3105
  46   2.0000      -0.625498       -17.0207
  47   2.0000      -0.614490       -16.7211
  48   2.0000      -0.598919       -16.2974
  49   2.0000      -0.584248       -15.8982
  50   2.0000      -0.562994       -15.3198
  51   2.0000      -0.558435       -15.1958
  52   2.0000      -0.549438       -14.9510
  53   2.0000      -0.534161       -14.5353
  54   2.0000      -0.527386       -14.3509
  55   2.0000      -0.522147       -14.2083
  56   2.0000      -0.516636       -14.0584
  57   2.0000      -0.507005       -13.7963
  58   2.0000      -0.503959       -13.7134
  59   2.0000      -0.501658       -13.6508
  60   2.0000      -0.498161       -13.5556
  61   2.0000      -0.491793       -13.3824
  62   2.0000      -0.488360       -13.2889
  63   2.0000      -0.465359       -12.6631
  64   2.0000      -0.464723       -12.6458
  65   2.0000      -0.459274       -12.4975
  66   2.0000      -0.454248       -12.3607
  67   2.0000      -0.447050       -12.1649
  68   2.0000      -0.438604       -11.9350
  69   2.0000      -0.434364       -11.8196
  70   2.0000      -0.431570       -11.7436
  71   2.0000      -0.428372       -11.6566
  72   2.0000      -0.415749       -11.3131
  73   2.0000      -0.414980       -11.2922
  74   2.0000      -0.401865       -10.9353
  75   2.0000      -0.396998       -10.8029
  76   2.0000      -0.387012       -10.5311
  77   2.0000      -0.383535       -10.4365
  78   2.0000      -0.378179       -10.2908
  79   2.0000      -0.368456       -10.0262
  80   2.0000      -0.351984        -9.5780
  81   2.0000      -0.344890        -9.3849
  82   2.0000      -0.344403        -9.3717
  83   2.0000      -0.335374        -9.1260
  84   2.0000      -0.327811        -8.9202
  85   2.0000      -0.326368        -8.8809
  86   2.0000      -0.313203        -8.5227
  87   2.0000      -0.308838        -8.4039
  88   2.0000      -0.300901        -8.1879
  89   2.0000      -0.299892        -8.1605
  90   2.0000      -0.276279        -7.5179
  91   2.0000      -0.270003        -7.3472
  92   2.0000      -0.240807        -6.5527
  93   2.0000      -0.211707        -5.7608
  94   0.0000      -0.056059        -1.5254
  95   0.0000      -0.045185        -1.2295
  96   0.0000      -0.035067        -0.9542
  97   0.0000      -0.027783        -0.7560
  98   0.0000      -0.015612        -0.4248

MULLIKEN ATOMIC CHARGES
-----------------------
   0 C :   -0.113205
   1 C :   -0.140074
   2 C :   -0.019430
   3 N :   -0.104097
   4 C :   -0.032847
   5 C :   -0.145289
   6 C :    0.038365
   7 C :    0.342744
   8 O :   -0.388856
   9 O :   -0.212712
  10 C :   -0.274609
  11 H :    0.176041
  12 H :    0.185473
  13 H :    0.177572
  14 H :    0.177239
  15 H :    0.183433
  16 H :    0.164926
  17 H :    0.157156
  18 C :    0.006086
  19 C :    0.069888
  20 C :   -0.065893
  21 C :   -0.188634
  22 C :   -0.203261
  23 C :   -0.139261
  24 C :   -0.321247
  25 C :    0.316793
  26 O :   -0.273683
  27 C :   -0.281240
  28 N :    0.482234
  29 O :   -0.535282
  30 H :    0.148328
  31 H :    0.159376
  32 H :    0.145889
  33 H :    0.151686
  34 H :    0.163656
  35 H :    0.160361
  36 H :    0.159458
  37 H :    0.154335
  38 O :   -0.446816
  39 H :    0.159926
  40 H :    0.176423
  41 C :   -0.288641
  42 H :    0.139164
  43 C :   -0.342572
  44 H :    0.163096
  45 H :    0.157999
Sum of atomic charges:   -0.0000000

LOEWDIN ATOMIC CHARGES
----------------------
   0 C :   -0.086469
   1 C :   -0.120087
   2 C :   -0.157994
   3 N :    0.263507
   4 C :   -0.153817
   5 C :   -0.120774
   6 C :   -0.063689
   7 C :   -0.528615
   8 O :    0.084531
   9 O :    0.280750
  10 C :   -0.297313
  11 H :    0.165176
  12 H :    0.160588
  13 H :    0.161232
  14 H :    0.165172
  15 H :    0.169277
  16 H :    0.123766
  17 H :    0.120916
  18 C :   -0.223696
  19 C :   -0.171834
  20 C :   -0.103677
  21 C :   -0.104595
  22 C :   -0.164360
  23 C :   -0.145490
  24 C :   -0.138469
  25 C :   -0.239499
  26 O :    0.254245
  27 C :   -0.328802
  28 N :   -0.000647
  29 O :   -0.212172
  30 H :    0.187513
  31 H :    0.162836
  32 H :    0.152090
  33 H :    0.154540
  34 H :    0.160514
  35 H :    0.122236
  36 H :    0.118597
  37 H :    0.118166
  38 O :   -0.055650
  39 H :    0.121730
  40 H :    0.165429
  41 C :   -0.193682
  42 H :    0.157028
  43 C :   -0.214637
  44 H :    0.128034
  45 H :    0.128093

  Mayer bond orders larger than 0.100000
B(  0-C ,  1-C ) :   1.4177 B(  0-C ,  5-C ) :   1.4163 B(  0-C , 11-H ) :   0.9475
B(  1-C ,  2-C ) :   1.4423 B(  1-C , 40-H ) :   0.9517 B(  2-C ,  3-N ) :   1.3180
B(  2-C , 12-H ) :   0.9320 B(  3-N ,  4-C ) :   1.3697 B(  3-N ,  6-C ) :   0.3304
B(  4-C ,  5-C ) :   1.4346 B(  4-C , 13-H ) :   0.9359 B(  5-C , 14-H ) :   0.9522
B(  6-C ,  7-C ) :   0.9530 B(  6-C , 15-H ) :   0.9337 B(  6-C , 19-C ) :   1.0278
B(  6-C , 38-O ) :   0.3404 B(  7-C ,  8-O ) :   2.0269 B(  7-C ,  9-O ) :   1.2423
B(  9-O , 10-C ) :   0.8874 B( 10-C , 16-H ) :   0.9650 B( 10-C , 17-H ) :   0.9659
B( 10-C , 39-H ) :   0.9646 B( 18-C , 19-C ) :   0.9180 B( 18-C , 28-N ) :   1.5356
B( 18-C , 29-O ) :   0.1472 B( 18-C , 41-C ) :   1.1311 B( 19-C , 20-C ) :   0.7855
B( 19-C , 30-H ) :   0.9642 B( 20-C , 21-C ) :   1.3789 B( 20-C , 25-C ) :   1.2857
B( 21-C , 22-C ) :   1.4032 B( 21-C , 31-H ) :   0.9719 B( 22-C , 23-C ) :   1.3951
B( 22-C , 32-H ) :   0.9842 B( 23-C , 24-C ) :   1.3999 B( 23-C , 33-H ) :   0.9689
B( 24-C , 25-C ) :   1.3808 B( 24-C , 34-H ) :   0.9611 B( 25-C , 26-O ) :   1.0390
B( 26-O , 27-C ) :   0.9336 B( 27-C , 35-H ) :   0.9649 B( 27-C , 36-H ) :   0.9581
B( 27-C , 37-H ) :   0.9638 B( 28-N , 29-O ) :   1.3613 B( 28-N , 38-O ) :   1.0616
B( 41-C , 42-H ) :   0.9478 B( 41-C , 43-C ) :   1.8327 B( 43-C , 44-H ) :   0.9383
B( 43-C , 45-H ) :   0.9624

Dispersion correction           -0.060533100
FINAL SINGLE POINT ENERGY     -1220.652932542846

DIPOLE MOMENT
-------------
                                X             Y             Z
Electronic contribution:      7.83914       1.38826      -8.03651
Nuclear contribution   :    -14.27068       1.46240      10.10117
                        -----------------------------------------
Total Dipole Moment    :     -6.43154       2.85065       2.06466
                        -----------------------------------------
Magnitude (a.u.)       :      7.33170
Magnitude (Debye)      :     18.63570

Dispersion correction in the Hessian             ... done   (      0.7 sec)

VIBRATIONAL FREQUENCIES
-----------------------

Scaling factor for frequencies =  1.000000000  (already applied!)

   0:         0.00 cm**-1
   1:         0.00 cm**-1
   2:         0.00 cm**-1
   3:         0.00 cm**-1
   4:         0.00 cm**-1
   5:         0.00 cm**-1
   6:      -550.29 cm**-1 ***imaginary mode***
   7:        21.50 cm**-1
   8:        35.23 cm**-1
   9:        43.39 cm**-1
  10:        55.43 cm**-1
  11:        59.89 cm**-1
  12:        67.05 cm**-1
  13:        68.88 cm**-1
  14:        79.57 cm**-1
  15:       102.96 cm**-1
  16:       108.80 cm**-1
  17:       136.03 cm**-1
  18:       147.76 cm**-1
  19:       152.89 cm**-1
  20:       163.98 cm**-1
  21:       173.64 cm**-1
  22:       180.90 cm**-1
  23:       187.53 cm**-1
  24:       201.21 cm**-1
  25:       219.43 cm**-1
  26:       239.74 cm**-1
  27:       247.74 cm**-1
  28:       260.83 cm**-1
  29:       291.68 cm**-1
  30:       311.32 cm**-1
  31:       327.80 cm**-1
  32:       357.20 cm**-1
  33:       383.78 cm**-1
  34:       394.73 cm**-1
  35:       443.06 cm**-1
  36:       451.90 cm**-1
  37:       488.01 cm**-1
  38:       498.21 cm**-1
  39:       560.46 cm**-1
  40:       581.63 cm**-1
  41:       606.22 cm**-1
  42:       619.06 cm**-1
  43:       635.56 cm**-1
  44:       652.57 cm**-1
  45:       660.15 cm**-1
  46:       674.51 cm**-1
  47:       696.77 cm**-1
  48:       711.00 cm**-1
  49:       723.97 cm**-1
  50:       747.97 cm**-1
  51:       764.66 cm**-1
  52:       768.53 cm**-1
  53:       777.13 cm**-1
  54:       779.91 cm**-1
  55:       810.90 cm**-1
  56:       846.20 cm**-1
  57:       872.29 cm**-1
  58:       887.43 cm**-1
  59:       892.73 cm**-1
  60:       903.51 cm**-1
  61:       912.25 cm**-1
  62:       966.21 cm**-1
  63:       977.21 cm**-1
  64:       994.96 cm**-1
  65:      1014.01 cm**-1
  66:      1020.66 cm**-1
  67:      1027.34 cm**-1
  68:      1037.44 cm**-1
  69:      1040.66 cm**-1
  70:      1060.69 cm**-1
  71:      1071.06 cm**-1
  72:      1083.63 cm**-1
  73:      1083.86 cm**-1
  74:      1094.41 cm**-1
  75:      1109.87 cm**-1
  76:      1114.01 cm**-1
  77:      1120.97 cm**-1
  78:      1138.51 cm**-1
  79:      1167.28 cm**-1
  80:      1170.42 cm**-1
  81:      1171.57 cm**-1
  82:      1174.90 cm**-1
  83:      1194.00 cm**-1
  84:      1207.88 cm**-1
  85:      1213.05 cm**-1
  86:      1228.83 cm**-1
  87:      1238.58 cm**-1
  88:      1245.72 cm**-1
  89:      1273.43 cm**-1
  90:      1283.75 cm**-1
  91:      1300.63 cm**-1
  92:      1304.98 cm**-1
  93:      1321.78 cm**-1
  94:      1330.42 cm**-1
  95:      1342.25 cm**-1
  96:      1372.19 cm**-1
  97:      1387.63 cm**-1
  98:      1394.73 cm**-1
  99:      1407.32 cm**-1
 100:      1465.25 cm**-1
 101:      1465.39 cm**-1
 102:      1470.12 cm**-1
 103:      1471.67 cm**-1
 104:      1472.35 cm**-1
 105:      1473.01 cm**-1
 106:      1481.93 cm**-1
 107:      1494.19 cm**-1
 108:      1497.94 cm**-1
 109:      1529.09 cm**-1
 110:      1537.80 cm**-1
 111:      1599.61 cm**-1
 112:      1648.91 cm**-1
 113:      1649.94 cm**-1
 114:      1663.76 cm**-1
 115:      1666.78 cm**-1
 116:      1669.92 cm**-1
 117:      1793.60 cm**-1
 118:      3037.91 cm**-1
 119:      3074.61 cm**-1
 120:      3107.34 cm**-1
 121:      3109.80 cm**-1
 122:      3159.24 cm**-1
 123:      3160.01 cm**-1
 124:      3165.73 cm**-1
 125:      3182.69 cm**-1
 126:      3192.56 cm**-1
 127:      3193.27 cm**-1
 128:      3195.39 cm**-1
 129:      3200.06 cm**-1
 130:      3205.76 cm**-1
 131:      3212.40 cm**-1
 132:      3213.58 cm**-1
 133:      3229.81 cm**-1
 134:      3230.93 cm**-1
 135:      3233.97 cm**-1
 136:      3252.14 cm**-1
 137:      3280.02 cm**-1

IR SPECTRUM
-----------

 Mode   freq       eps      Int      T**2         TX        TY        TZ
       cm**-1   L/(mol*cm) km/mol    a.u.
----------------------------------------------------------------------------
  7:     21.50   0.000120    0.61  0.001740  (-0.030915  0.000819 -0.027992)
  8:     35.23   0.000218    1.10  0.001927  (-0.019302 -0.038348 -0.009152)
  9:     43.39   0.000004    0.02  0.000027  ( 0.000033  0.004687 -0.002224)
 10:     55.43   0.000514    2.60  0.002892  ( 0.031749 -0.043369 -0.001755)
 11:     59.89   0.000215    1.09  0.001119  ( 0.007367 -0.029490  0.013981)
 12:     67.05   0.000513    2.59  0.002386  (-0.017293  0.018179  0.041915)
 13:     68.88   0.001460    7.38  0.006616  ( 0.032634 -0.068299 -0.029763)
 14:     79.57   0.001263    6.38  0.004954  (-0.033658 -0.057953 -0.021506)
 15:    102.96   0.001350    6.82  0.004090  (-0.018482  0.045109 -0.041401)
 16:    108.80   0.000177    0.89  0.000506  (-0.020625 -0.006512  0.006210)
 17:    136.03   0.000059    0.30  0.000136  ( 0.001927  0.011376 -0.001647)
 18:    147.76   0.001331    6.73  0.002811  ( 0.035997 -0.038874 -0.001988)
 19:    152.89   0.001017    5.14  0.002075  (-0.027677  0.033455  0.013777)
 20:    163.98   0.000898    4.54  0.001709  ( 0.007889 -0.038826 -0.011797)
 21:    173.64   0.000524    2.65  0.000942  (-0.006770 -0.029889 -0.001574)
 22:    180.90   0.001631    8.24  0.002813  ( 0.026706 -0.030706  0.034008)
 23:    187.53   0.003404   17.20  0.005664  (-0.063904  0.039290  0.006074)
 24:    201.21   0.002035   10.28  0.003156  ( 0.043098 -0.035188  0.007789)
 25:    219.43   0.000205    1.04  0.000292  ( 0.016862 -0.001757 -0.002032)
 26:    239.74   0.000065    0.33  0.000085  ( 0.001389  0.006969  0.005835)
 27:    247.74   0.002534   12.80  0.003192  ( 0.003325 -0.053789  0.016952)
 28:    260.83   0.001010    5.11  0.001209  ( 0.004264 -0.033973  0.006049)
 29:    291.68   0.000273    1.38  0.000292  ( 0.010841  0.011914 -0.005680)
 30:    311.32   0.004870   24.61  0.004881  (-0.023057 -0.021796 -0.062246)
 31:    327.80   0.001239    6.26  0.001179  (-0.004311 -0.003489 -0.033888)
 32:    357.20   0.000171    0.87  0.000150  (-0.000717  0.000384 -0.012206)
 33:    383.78   0.004840   24.46  0.003936  ( 0.062603 -0.003976 -0.000723)
 34:    394.73   0.000026    0.13  0.000020  (-0.004310  0.001135  0.000720)
 35:    443.06   0.000167    0.84  0.000117  (-0.005769 -0.000464  0.009161)
 36:    451.90   0.001584    8.01  0.001094  (-0.021585 -0.023253  0.009345)
 37:    488.01   0.002457   12.42  0.001571  (-0.038669 -0.002537 -0.008351)
 38:    498.21   0.001095    5.53  0.000686  (-0.001575 -0.017325  0.019571)
 39:    560.46   0.001245    6.29  0.000693  (-0.007322  0.024296 -0.007013)
 40:    581.63   0.003887   19.64  0.002085  ( 0.019519  0.029117  0.029266)
 41:    606.22   0.003597   18.18  0.001852  (-0.027095  0.026846 -0.019919)
 42:    619.06   0.005126   25.91  0.002584  ( 0.032551  0.034817 -0.017675)
 43:    635.56   0.004397   22.22  0.002159  ( 0.023063 -0.039169  0.009627)
 44:    652.57   0.005006   25.30  0.002394  ( 0.018640 -0.044580 -0.007683)
 45:    660.15   0.000567    2.87  0.000268  ( 0.010048 -0.012875 -0.001179)
 46:    674.51   0.002482   12.54  0.001148  ( 0.005976  0.028673  0.017046)
 47:    696.77   0.003503   17.70  0.001569  ( 0.025259 -0.021957  0.021181)
 48:    711.00   0.021285  107.57  0.009342  (-0.034592 -0.081307  0.039178)
 49:    723.97   0.004906   24.79  0.002115  (-0.022171 -0.039844 -0.005980)
 50:    747.97   0.002865   14.48  0.001195  (-0.011421 -0.031327  0.009139)
 51:    764.66   0.006174   31.20  0.002520  ( 0.035427 -0.035340 -0.003976)
 52:    768.53   0.011775   59.50  0.004781  (-0.031988  0.043613 -0.043079)
 53:    777.13   0.016880   85.30  0.006778  (-0.000090 -0.074870  0.034244)
 54:    779.91   0.000760    3.84  0.000304  ( 0.002052 -0.012207  0.012290)
 55:    810.90   0.005229   26.43  0.002012  (-0.008972 -0.015619 -0.041085)
 56:    846.20   0.003734   18.87  0.001377  (-0.017081 -0.020781  0.025565)
 57:    872.29   0.002630   13.29  0.000941  ( 0.001604 -0.025330  0.017221)
 58:    887.43   0.007170   36.24  0.002521  ( 0.029648  0.036520 -0.017570)
 59:    892.73   0.000004    0.02  0.000001  (-0.000391 -0.001050 -0.000028)
 60:    903.51   0.007167   36.22  0.002476  ( 0.013009  0.029926 -0.037560)
 61:    912.25   0.019087   96.46  0.006529  ( 0.033103  0.056409  0.047449)
 62:    966.21   0.001134    5.73  0.000366  ( 0.002334 -0.014992  0.011665)
 63:    977.21   0.000140    0.71  0.000045  (-0.003762 -0.003681  0.004127)
 64:    994.96   0.000047    0.24  0.000015  ( 0.001318 -0.002877  0.002156)
 65:   1014.01   0.000021    0.11  0.000007  ( 0.001082  0.000136  0.002308)
 66:   1020.66   0.001442    7.29  0.000441  (-0.008195 -0.012668  0.014604)
 67:   1027.34   0.006703   33.87  0.002036  (-0.017119 -0.033279 -0.025211)
 68:   1037.44   0.012824   64.81  0.003857  (-0.040350  0.043711 -0.017849)
 69:   1040.66   0.000037    0.19  0.000011  (-0.000206  0.003313 -0.000466)
 70:   1060.69   0.000091    0.46  0.000027  ( 0.003544  0.001649 -0.003377)
 71:   1071.06   0.009650   48.77  0.002812  (-0.043893 -0.007241  0.028857)
 72:   1083.63   0.024875  125.71  0.007164  ( 0.029588  0.025706  0.075015)
 73:   1083.86   0.010591   53.52  0.003049  ( 0.053237  0.011860 -0.008639)
 74:   1094.41   0.017839   90.15  0.005087  ( 0.017258 -0.067694  0.014365)
 75:   1109.87   0.030103  152.13  0.008464  ( 0.042745  0.058098 -0.057111)
 76:   1114.01   0.030872  156.01  0.008648  ( 0.017703  0.066654 -0.062385)
 77:   1120.97   0.001718    8.68  0.000478  ( 0.009447  0.011201  0.016239)
 78:   1138.51   0.029415  148.65  0.008063  (-0.055100 -0.013707  0.069560)
 79:   1167.28   0.000689    3.48  0.000184  (-0.004365 -0.003618 -0.012329)
 80:   1170.42   0.000204    1.03  0.000054  (-0.002761  0.005504 -0.004043)
 81:   1171.57   0.000469    2.37  0.000125  ( 0.009116 -0.005964 -0.002505)
 82:   1174.90   0.002070   10.46  0.000550  ( 0.018669  0.001199 -0.014140)
 83:   1194.00   0.001293    6.53  0.000338  ( 0.007908  0.004367 -0.016007)
 84:   1207.88   0.000401    2.03  0.000104  (-0.005838 -0.000273 -0.008330)
 85:   1213.05   0.001558    7.87  0.000401  ( 0.018488 -0.006939 -0.003299)
 86:   1228.83   0.003954   19.98  0.001004  ( 0.011602  0.014608 -0.025613)
 87:   1238.58   0.007079   35.78  0.001784  (-0.031947  0.027459  0.002999)
 88:   1245.72   0.004387   22.17  0.001099  (-0.019396  0.019153 -0.018865)
 89:   1273.43   0.023713  119.84  0.005811  (-0.047219 -0.019097  0.056717)
 90:   1283.75   0.043258  218.61  0.010516  ( 0.047689 -0.089228 -0.016726)
 91:   1300.63   0.064486  325.89  0.015472  ( 0.036712 -0.066022 -0.098822)
 92:   1304.98   0.041331  208.87  0.009884  ( 0.071295  0.048806  0.049180)
 93:   1321.78   0.022060  111.48  0.005208  (-0.031820  0.043066  0.048384)
 94:   1330.42   0.083911  424.05  0.019682  ( 0.136578 -0.029347  0.012943)
 95:   1342.25   0.004118   20.81  0.000957  ( 0.021916  0.009153  0.019834)
 96:   1372.19   0.025764  130.20  0.005859  (-0.059644  0.014021 -0.045884)
 97:   1387.63   0.002630   13.29  0.000591  ( 0.010954  0.001035 -0.021690)
 98:   1394.73   0.028709  145.08  0.006423  ( 0.002097 -0.015796  0.078546)
 99:   1407.32   0.003106   15.70  0.000689  (-0.001076  0.013746  0.022330)
100:   1465.25   0.003987   20.15  0.000849  ( 0.018943 -0.017932 -0.012987)
101:   1465.39   0.004036   20.39  0.000859  (-0.012034 -0.011495 -0.024134)
102:   1470.12   0.014175   71.64  0.003009  (-0.038912 -0.014736 -0.035746)
103:   1471.67   0.012900   65.19  0.002735  ( 0.039773 -0.020155 -0.027338)
104:   1472.35   0.003260   16.48  0.000691  (-0.004843  0.024114 -0.009275)
105:   1473.01   0.002878   14.54  0.000610  ( 0.000285 -0.024338 -0.004157)
106:   1481.93   0.004416   22.32  0.000930  (-0.000176 -0.012134 -0.027977)
107:   1494.19   0.013133   66.37  0.002743  ( 0.008294  0.013488  0.049922)
108:   1497.94   0.010254   51.82  0.002136  (-0.012552  0.024686  0.037003)
109:   1529.09   0.001298    6.56  0.000265  ( 0.015984  0.002637 -0.001573)
110:   1537.80   0.035802  180.93  0.007265  (-0.016326  0.041817  0.072457)
111:   1599.61   0.229389  1159.24  0.044751  (-0.158432 -0.047572  0.131859)
112:   1648.91   0.001340    6.77  0.000254  ( 0.004473  0.005964  0.014074)
113:   1649.94   0.001852    9.36  0.000350  ( 0.008511 -0.011492 -0.012071)
114:   1663.76   0.011870   59.99  0.002226  (-0.001721  0.029388  0.036877)
115:   1666.78   0.012358   62.45  0.002314  ( 0.039507 -0.027436  0.000501)
116:   1669.92   0.018128   91.61  0.003388  (-0.015926 -0.021732  0.051591)
117:   1793.60   0.113275  572.44  0.019708  (-0.023463 -0.086657  0.107928)
118:   3037.91   0.012612   63.73  0.001296  (-0.029584  0.003790  0.020148)
119:   3074.61   0.005769   29.16  0.000586  ( 0.014739  0.017284  0.008342)
120:   3107.34   0.000503    2.54  0.000051  (-0.003202 -0.006298 -0.000764)
121:   3109.80   0.007761   39.22  0.000779  ( 0.005804 -0.022151  0.015951)
122:   3159.24   0.003510   17.74  0.000347  (-0.014993  0.010036  0.004604)
123:   3160.01   0.000073    0.37  0.000007  (-0.001130 -0.000219 -0.002421)
124:   3165.73   0.003701   18.71  0.000365  ( 0.004653  0.011739  0.014333)
125:   3182.69   0.000483    2.44  0.000047  ( 0.006594  0.001277 -0.001500)
126:   3192.56   0.000575    2.91  0.000056  (-0.000359 -0.004196  0.006206)
127:   3193.27   0.001888    9.54  0.000185  (-0.002296  0.003439 -0.012940)
128:   3195.39   0.001349    6.82  0.000132  (-0.010535 -0.004451 -0.000956)
129:   3200.06   0.000722    3.65  0.000070  (-0.006788  0.002685 -0.004136)
130:   3205.76   0.000813    4.11  0.000079  (-0.007598  0.004352  0.001564)
131:   3212.40   0.000010    0.05  0.000001  (-0.000275 -0.000187 -0.000936)
132:   3213.58   0.003023   15.28  0.000294  (-0.001798 -0.010264 -0.013599)
133:   3229.81   0.000201    1.02  0.000019  (-0.000307 -0.001538 -0.004122)
134:   3230.93   0.000420    2.12  0.000041  ( 0.005756  0.000662 -0.002644)
135:   3233.97   0.000331    1.67  0.000032  ( 0.004686 -0.003116  0.000512)
136:   3252.14   0.000856    4.32  0.000082  ( 0.002442 -0.006471  0.005855)
137:   3280.02   0.000314    1.59  0.000030  ( 0.003046 -0.004122 -0.001889)

--------------------------
THERMOCHEMISTRY AT 298.15K
--------------------------

Temperature         ... 298.15 K
Pressure            ... 1.00 atm
Total Mass          ... 356.38 AMU

Throughout the following assumptions are being made:
  (1) The electronic state is orbitally nondegenerate
  (2) There are no thermally accessible electronically excited states
  (3) Hindered rotations indicated by low frequency modes are not
      treated as such but are treated as vibrations and this may
      cause some error
  (4) All equations used are the standard statistical mechanics
      equations for an ideal gas
  (5) All vibrations are strictly harmonic

freq.      21.50  E(vib)   ...       0.56
freq.      35.23  E(vib)   ...       0.54
freq.      43.39  E(vib)   ...       0.53
freq.      55.43  E(vib)   ...       0.52
freq.      59.89  E(vib)   ...       0.51
freq.      67.05  E(vib)   ...       0.50
freq.      68.88  E(vib)   ...       0.50
freq.      79.57  E(vib)   ...       0.49
freq.     102.96  E(vib)   ...       0.46
freq.     108.80  E(vib)   ...       0.45
freq.     136.03  E(vib)   ...       0.42
freq.     147.76  E(vib)   ...       0.41
freq.     152.89  E(vib)   ...       0.40
freq.     163.98  E(vib)   ...       0.39
freq.     173.64  E(vib)   ...       0.38
freq.     180.90  E(vib)   ...       0.37
freq.     187.53  E(vib)   ...       0.36
freq.     201.21  E(vib)   ...       0.35
freq.     219.43  E(vib)   ...       0.33
freq.     239.74  E(vib)   ...       0.31
freq.     247.74  E(vib)   ...       0.31
freq.     260.83  E(vib)   ...       0.30
freq.     291.68  E(vib)   ...       0.27
freq.     311.32  E(vib)   ...       0.25
freq.     327.80  E(vib)   ...       0.24
freq.     357.20  E(vib)   ...       0.22
freq.     383.78  E(vib)   ...       0.20
freq.     394.73  E(vib)   ...       0.20
freq.     443.06  E(vib)   ...       0.17
freq.     451.90  E(vib)   ...       0.16
freq.     488.01  E(vib)   ...       0.15
freq.     498.21  E(vib)   ...       0.14
freq.     560.46  E(vib)   ...       0.11
freq.     581.63  E(vib)   ...       0.11
freq.     606.22  E(vib)   ...       0.10
freq.     619.06  E(vib)   ...       0.09
freq.     635.56  E(vib)   ...       0.09
freq.     652.57  E(vib)   ...       0.08
freq.     660.15  E(vib)   ...       0.08
freq.     674.51  E(vib)   ...       0.08
freq.     696.77  E(vib)   ...       0.07
freq.     711.00  E(vib)   ...       0.07
freq.     723.97  E(vib)   ...       0.06
freq.     747.97  E(vib)   ...       0.06
freq.     764.66  E(vib)   ...       0.06
freq.     768.53  E(vib)   ...       0.06
freq.     777.13  E(vib)   ...       0.05
freq.     779.91  E(vib)   ...       0.05
freq.     810.90  E(vib)   ...       0.05
freq.     846.20  E(vib)   ...       0.04
freq.     872.29  E(vib)   ...       0.04
freq.     887.43  E(vib)   ...       0.04
freq.     892.73  E(vib)   ...       0.03
freq.     903.51  E(vib)   ...       0.03
freq.     912.25  E(vib)   ...       0.03
freq.     966.21  E(vib)   ...       0.03
freq.     977.21  E(vib)   ...       0.03
freq.     994.96  E(vib)   ...       0.02
freq.    1014.01  E(vib)   ...       0.02
freq.    1020.66  E(vib)   ...       0.02
freq.    1027.34  E(vib)   ...       0.02
freq.    1037.44  E(vib)   ...       0.02
freq.    1040.66  E(vib)   ...       0.02
freq.    1060.69  E(vib)   ...       0.02
freq.    1071.06  E(vib)   ...       0.02
freq.    1083.63  E(vib)   ...       0.02
freq.    1083.86  E(vib)   ...       0.02
freq.    1094.41  E(vib)   ...       0.02
freq.    1109.87  E(vib)   ...       0.02
freq.    1114.01  E(vib)   ...       0.01
freq.    1120.97  E(vib)   ...       0.01
freq.    1138.51  E(vib)   ...       0.01
freq.    1167.28  E(vib)   ...       0.01
freq.    1170.42  E(vib)   ...       0.01
freq.    1171.57  E(vib)   ...       0.01
freq.    1174.90  E(vib)   ...       0.01
freq.    1194.00  E(vib)   ...       0.01
freq.    1207.88  E(vib)   ...       0.01
freq.    1213.05  E(vib)   ...       0.01
freq.    1228.83  E(vib)   ...       0.01
freq.    1238.58  E(vib)   ...       0.01
freq.    1245.72  E(vib)   ...       0.01
freq.    1273.43  E(vib)   ...       0.01
freq.    1283.75  E(vib)   ...       0.01
freq.    1300.63  E(vib)   ...       0.01
freq.    1304.98  E(vib)   ...       0.01
freq.    1321.78  E(vib)   ...       0.01
freq.    1330.42  E(vib)   ...       0.01
freq.    1342.25  E(vib)   ...       0.01
freq.    1372.19  E(vib)   ...       0.01
freq.    1387.63  E(vib)   ...       0.00
freq.    1394.73  E(vib)   ...       0.00
freq.    1407.32  E(vib)   ...       0.00
freq.    1465.25  E(vib)   ...       0.00
freq.    1465.39  E(vib)   ...       0.00
freq.    1470.12  E(vib)   ...       0.00
freq.    1471.67  E(vib)   ...       0.00
freq.    1472.35  E(vib)   ...       0.00
freq.    1473.01  E(vib)   ...       0.00
freq.    1481.93  E(vib)   ...       0.00
freq.    1494.19  E(vib)   ...       0.00
freq.    1497.94  E(vib)   ...       0.00
freq.    1529.09  E(vib)   ...       0.00
freq.    1537.80  E(vib)   ...       0.00
freq.    1599.61  E(vib)   ...       0.00
freq.    1648.91  E(vib)   ...       0.00
freq.    1649.94  E(vib)   ...       0.00
freq.    1663.76  E(vib)   ...       0.00
freq.    1666.78  E(vib)   ...       0.00
freq.    1669.92  E(vib)   ...       0.00
freq.    1793.60  E(vib)   ...       0.00
freq.    3037.91  E(vib)   ...       0.00
freq.    3074.61  E(vib)   ...       0.00
freq.    3107.34  E(vib)   ...       0.00
freq.    3109.80  E(vib)   ...       0.00
freq.    3159.24  E(vib)   ...       0.00
freq.    3160.01  E(vib)   ...       0.00
freq.    3165.73  E(vib)   ...       0.00
freq.    3182.69  E(vib)   ...       0.00
freq.    3192.56  E(vib)   ...       0.00
freq.    3193.27  E(vib)   ...       0.00
freq.    3195.39  E(vib)   ...       0.00
freq.    3200.06  E(vib)   ...       0.00
freq.    3205.76  E(vib)   ...       0.00
freq.    3212.40  E(vib)   ...       0.00
freq.    3213.58  E(vib)   ...       0.00
freq.    3229.81  E(vib)   ...       0.00
freq.    3230.93  E(vib)   ...       0.00
freq.    3233.97  E(vib)   ...       0.00
freq.    3252.14  E(vib)   ...       0.00
freq.    3280.02  E(vib)   ...       0.00

------------
INNER ENERGY
------------

The inner energy is: U= E(el) + E(ZPE) + E(vib) + E(rot) + E(trans)
    E(el)   - is the total energy from the electronic structure calculation
              = E(kin-el) + E(nuc-el) + E(el-el) + E(nuc-nuc)
    E(ZPE)  - the the zero temperature vibrational energy from the frequency calculation
    E(vib)  - the the finite temperature correction to E(ZPE) due to population
              of excited vibrational states
    E(rot)  - is the rotational thermal energy
    E(trans)- is the translational thermal energy

Rotational constants in cm-1:     0.008792     0.007292     0.005329

                             ****ORCA TERMINATED NORMALLY****
TOTAL RUN TIME: 0 days 2 hours 49 minutes 31 seconds 671 msec
