                         Program Version 5.0.4 -  RELEASE  -
|  1> %pal nprocs 24 end
|  2> ! PBE0 D3BJ def2-TZVP TightSCF OPTTS FREQ TightOpt
|  3> ! CPCM(dmso)
|  4> %scf
|  5> MaxIter 800
|  6> end
|  7>
|  8> %geom
|  9> MaxIter 800
| 10> MaxStep 0.15
| 11> end
| 12>
| 13> *xyz 0 1
| 14> C      -4.01837100      1.77240300      0.28430100
| 15> C      -3.09177300      1.97618000      1.30464100
| 16> C      -1.74367700      1.77824700      1.02816400
| 17> N      -1.32674100      1.41491800     -0.18360300
| 18> C      -2.20005200      1.22018200     -1.17023100
| 19> C      -3.56647600      1.38756300     -0.97691600
| 20> C       0.63906900      0.94811700     -0.65033500
| 21> C       1.07164300      2.22723300     -0.00308300
| 22> O       1.39896200      2.30203200      1.15730500
| 23> O       1.03923000      3.23557600     -0.85178700
| 24> C       1.42593700      4.50881500     -0.33931500
| 25> H      -5.08602500      1.91059500      0.47061700
| 26> H      -0.97509300      1.91530000      1.79496600
| 27> H      -1.79540100      0.91127200     -2.13900500
| 28> H      -4.25795400      1.21493300     -1.80330800
| 29> H       0.29853400      0.96907500     -1.68212100
| 30> H       1.34214700      5.21058200     -1.17571700
| 31> H       2.46052600      4.47524900      0.03002200
| 32> C       2.05896400     -0.76344900      0.30076600
| 33> C       0.63516500     -0.33546700      0.16118800
| 34> C      -0.24621200     -1.39400900     -0.47193400
| 35> C       0.08714900     -1.94341200     -1.70881200
| 36> C      -0.73313800     -2.88657700     -2.32776500
| 37> C      -1.90647400     -3.28393800     -1.69101700
| 38> C      -2.26010900     -2.75108200     -0.45118700
| 39> C      -1.43288200     -1.80480000      0.16608800
| 40> O      -1.70675200     -1.23611600      1.35480100
| 41> C      -2.91566300     -1.54396800      2.00795900
| 42> N       2.93802400     -0.20179200     -0.54931300
| 43> O       4.12271300     -0.43778800     -0.67140000
| 44> H       0.25267200     -0.11177400      1.16505100
| 45> H       1.00835700     -1.61749500     -2.20083900
| 46> H      -0.45694500     -3.30421000     -3.29821100
| 47> H      -2.56374900     -4.02086300     -2.15956100
| 48> H      -3.18248000     -3.07571700      0.03089100
| 49> H      -2.93640100     -0.93869400      2.92228600
| 50> H      -2.96803400     -2.61161700      2.27779200
| 51> H      -3.78644500     -1.28320400      1.38414300
| 52> O       2.39603100      0.70099300     -1.31616700
| 53> H       0.75719500      4.80953900      0.47971400
| 54> H      -3.40268300      2.27736300      2.30641500
| 55> N       2.42839100     -1.73640200      1.23490500
| 56> O       3.59021200     -2.09549100      1.34548300
| 57> O       1.51271100     -2.18383400      1.92316700
| 58> *
| 59>
| 60>                          ****END OF INPUT****
 Total Charge           Charge          ....    0
 Multiplicity           Mult            ....    1
 Number of Electrons    NEL             ....  196
Dispersion correction           -0.057965929
FINAL SINGLE POINT ENERGY     -1347.699032327268
Dispersion correction            ... done
Dispersion correction           -0.057899621
FINAL SINGLE POINT ENERGY     -1347.699030388954
Dispersion correction            ... done
Dispersion correction           -0.058102931
FINAL SINGLE POINT ENERGY     -1347.697363195179
Dispersion correction            ... done
FINAL SINGLE POINT ENERGY     -1347.700316453417
FINAL SINGLE POINT ENERGY     -1347.700022664769
FINAL SINGLE POINT ENERGY     -1347.700150918543
FINAL SINGLE POINT ENERGY     -1347.699710749025
FINAL SINGLE POINT ENERGY     -1347.700287813911
FINAL SINGLE POINT ENERGY     -1347.700136674349
FINAL SINGLE POINT ENERGY     -1347.700337781882
FINAL SINGLE POINT ENERGY     -1347.700796357597
FINAL SINGLE POINT ENERGY     -1347.700793925166
FINAL SINGLE POINT ENERGY     -1347.700791552912
FINAL SINGLE POINT ENERGY     -1347.700789590861
FINAL SINGLE POINT ENERGY     -1347.700788286171
FINAL SINGLE POINT ENERGY     -1347.700787716895
FINAL SINGLE POINT ENERGY     -1347.700787616217
Dispersion correction           -0.057763925
FINAL SINGLE POINT ENERGY     -1347.700788380372
Dispersion correction            ... done
Dispersion correction           -0.057761447
FINAL SINGLE POINT ENERGY     -1347.700788642522
Dispersion correction            ... done
                    ***********************HURRAY********************

CARTESIAN COORDINATES (ANGSTROEM)
---------------------------------
  C     -4.007457    1.846557    0.220984
  C     -3.103776    1.994257    1.261130
  C     -1.763931    1.757114    1.013861
  N     -1.328255    1.403397   -0.190423
  C     -2.185120    1.263974   -1.196624
  C     -3.541240    1.474790   -1.030904
  C      0.641422    0.936424   -0.639514
  C      1.056526    2.222094   -0.001147
  O      1.381538    2.308889    1.157176
  O      1.013642    3.220708   -0.861393
  C      1.386064    4.505660   -0.346955
  H     -5.064897    2.017700    0.383951
  H     -1.017782    1.851014    1.795263
  H     -1.773619    0.966203   -2.155072
  H     -4.212213    1.346601   -1.870331
  H      0.308457    0.945976   -1.663789
  H      1.301238    5.191135   -1.185442
  H      2.410151    4.478323    0.024890
  C      2.060474   -0.784019    0.292706
  C      0.641256   -0.343491    0.170637
  C     -0.249621   -1.395482   -0.455575
  C      0.060655   -1.924123   -1.699519
  C     -0.761988   -2.857419   -2.314093
  C     -1.915697   -3.267563   -1.665354
  C     -2.243926   -2.759796   -0.416046
  C     -1.412800   -1.825185    0.196558
  O     -1.662957   -1.287644    1.407080
  C     -2.876773   -1.618795    2.053518
  N      2.942746   -0.207930   -0.534204
  O      4.132677   -0.441024   -0.654386
  H      0.274771   -0.114281    1.170692
  H      0.963730   -1.591814   -2.202216
  H     -0.503843   -3.255597   -3.287788
  H     -2.573812   -3.993677   -2.129115
  H     -3.147002   -3.094178    0.076181
  H     -2.890573   -1.043400    2.976791
  H     -2.922077   -2.686077    2.287653
  H     -3.737613   -1.341799    1.438566
  O      2.409442    0.708235   -1.290751
  H      0.708475    4.796618    0.455829
  H     -3.424453    2.282225    2.253882
  N      2.429630   -1.754586    1.220025
  O      3.592329   -2.118951    1.337611
  O      1.510304   -2.206596    1.904695

 Multiplicity           Mult            ....    1
 Number of Electrons    NEL             ....  196
 Basis Dimension        Dim             ....  939

ORBITAL ENERGIES
----------------

  NO   OCC          E(Eh)            E(eV)
   0   2.0000     -19.272439      -524.4297
   1   2.0000     -19.255381      -523.9656
   2   2.0000     -19.246205      -523.7159
   3   2.0000     -19.236993      -523.4652
   4   2.0000     -19.230998      -523.3021
   5   2.0000     -19.229879      -523.2716
   6   2.0000     -19.214047      -522.8408
   7   2.0000     -14.624015      -397.9397
   8   2.0000     -14.620011      -397.8307
   9   2.0000     -14.439327      -392.9141
  10   2.0000     -10.374637      -282.3082
  11   2.0000     -10.339609      -281.3551
  12   2.0000     -10.315015      -280.6858
  13   2.0000     -10.293507      -280.1006
  14   2.0000     -10.284760      -279.8625
  15   2.0000     -10.283881      -279.8386
  16   2.0000     -10.276996      -279.6513
  17   2.0000     -10.274311      -279.5782
  18   2.0000     -10.266943      -279.3777
  19   2.0000     -10.259639      -279.1790
  20   2.0000     -10.250281      -278.9243
  21   2.0000     -10.249916      -278.9144
  22   2.0000     -10.243951      -278.7521
  23   2.0000     -10.233243      -278.4607
  24   2.0000     -10.231327      -278.4085
  25   2.0000     -10.227297      -278.2989
  26   2.0000     -10.223427      -278.1936
  27   2.0000      -1.271773       -34.6067
  28   2.0000      -1.254657       -34.1409
  29   2.0000      -1.164435       -31.6859
  30   2.0000      -1.110104       -30.2075
  31   2.0000      -1.085343       -29.5337
  32   2.0000      -1.077983       -29.3334
  33   2.0000      -1.071903       -29.1680
  34   2.0000      -1.016768       -27.6677
  35   2.0000      -0.928534       -25.2667
  36   2.0000      -0.892534       -24.2871
  37   2.0000      -0.861158       -23.4333
  38   2.0000      -0.842591       -22.9281
  39   2.0000      -0.814376       -22.1603
  40   2.0000      -0.799385       -21.7524
  41   2.0000      -0.781238       -21.2586
  42   2.0000      -0.775684       -21.1074
  43   2.0000      -0.759377       -20.6637
  44   2.0000      -0.721611       -19.6360
  45   2.0000      -0.699658       -19.0387
  46   2.0000      -0.680534       -18.5183
  47   2.0000      -0.668395       -18.1880
  48   2.0000      -0.632829       -17.2202
  49   2.0000      -0.619805       -16.8658
  50   2.0000      -0.616416       -16.7735
  51   2.0000      -0.602102       -16.3840
  52   2.0000      -0.585783       -15.9400
  53   2.0000      -0.584548       -15.9064
  54   2.0000      -0.567867       -15.4525
  55   2.0000      -0.564469       -15.3600
  56   2.0000      -0.550177       -14.9711
  57   2.0000      -0.545722       -14.8498
  58   2.0000      -0.538820       -14.6620
  59   2.0000      -0.534214       -14.5367
  60   2.0000      -0.524729       -14.2786
  61   2.0000      -0.519892       -14.1470
  62   2.0000      -0.517216       -14.0742
  63   2.0000      -0.512450       -13.9445
  64   2.0000      -0.501829       -13.6555
  65   2.0000      -0.497873       -13.5478
  66   2.0000      -0.493477       -13.4282
  67   2.0000      -0.479741       -13.0544
  68   2.0000      -0.468190       -12.7401
  69   2.0000      -0.462027       -12.5724
  70   2.0000      -0.456487       -12.4216
  71   2.0000      -0.454335       -12.3631
  72   2.0000      -0.445116       -12.1122
  73   2.0000      -0.436014       -11.8645
  74   2.0000      -0.433205       -11.7881
  75   2.0000      -0.422190       -11.4884
  76   2.0000      -0.419237       -11.4080
  77   2.0000      -0.400427       -10.8962
  78   2.0000      -0.395906       -10.7731
  79   2.0000      -0.389621       -10.6021
  80   2.0000      -0.386233       -10.5099
  81   2.0000      -0.385091       -10.4789
  82   2.0000      -0.370951       -10.0941
  83   2.0000      -0.347633        -9.4596
  84   2.0000      -0.346240        -9.4217
  85   2.0000      -0.345780        -9.4091
  86   2.0000      -0.343022        -9.3341
  87   2.0000      -0.337851        -9.1934
  88   2.0000      -0.330107        -8.9827
  89   2.0000      -0.327353        -8.9077
  90   2.0000      -0.325551        -8.8587
  91   2.0000      -0.323077        -8.7914
  92   2.0000      -0.310447        -8.4477
  93   2.0000      -0.299222        -8.1423
  94   2.0000      -0.293935        -7.9984
  95   2.0000      -0.277447        -7.5497
  96   2.0000      -0.261161        -7.1065
  97   2.0000      -0.241810        -6.5800
  98   0.0000      -0.091254        -2.4832
  99   0.0000      -0.055650        -1.5143
 100   0.0000      -0.049376        -1.3436
 101   0.0000      -0.032835        -0.8935
 102   0.0000      -0.018943        -0.5155

MULLIKEN ATOMIC CHARGES
-----------------------
   0 C :   -0.114196
   1 C :   -0.138403
   2 C :   -0.009805
   3 N :   -0.141822
   4 C :   -0.024012
   5 C :   -0.147433
   6 C :    0.070760
   7 C :    0.326026
   8 O :   -0.377733
   9 O :   -0.211310
  10 C :   -0.265228
  11 H :    0.175435
  12 H :    0.179993
  13 H :    0.175348
  14 H :    0.176563
  15 H :    0.188567
  16 H :    0.167360
  17 H :    0.159468
  18 C :   -0.116341
  19 C :    0.104604
  20 C :   -0.080214
  21 C :   -0.162114
  22 C :   -0.204653
  23 C :   -0.139394
  24 C :   -0.301689
  25 C :    0.281100
  26 O :   -0.265073
  27 C :   -0.281145
  28 N :    0.467975
  29 O :   -0.392721
  30 H :    0.140297
  31 H :    0.160950
  32 H :    0.147236
  33 H :    0.152863
  34 H :    0.164774
  35 H :    0.160131
  36 H :    0.160330
  37 H :    0.152487
  38 O :   -0.358539
  39 H :    0.158598
  40 H :    0.175828
  41 N :    0.482054
  42 O :   -0.390292
  43 O :   -0.406634
Sum of atomic charges:   -0.0000000

LOEWDIN ATOMIC CHARGES
----------------------
   0 C :   -0.087785
   1 C :   -0.121255
   2 C :   -0.162875
   3 N :    0.249773
   4 C :   -0.159883
   5 C :   -0.122174
   6 C :   -0.057930
   7 C :   -0.526362
   8 O :    0.103270
   9 O :    0.281683
  10 C :   -0.293124
  11 H :    0.164913
  12 H :    0.159336
  13 H :    0.160103
  14 H :    0.164854
  15 H :    0.170383
  16 H :    0.124176
  17 H :    0.121613
  18 C :   -0.237767
  19 C :   -0.184074
  20 C :   -0.108483
  21 C :   -0.105521
  22 C :   -0.162904
  23 C :   -0.142694
  24 C :   -0.136611
  25 C :   -0.236610
  26 O :    0.259448
  27 C :   -0.327231
  28 N :    0.003223
  29 O :   -0.069996
  30 H :    0.191853
  31 H :    0.163197
  32 H :    0.152722
  33 H :    0.155187
  34 H :    0.161006
  35 H :    0.122385
  36 H :    0.118567
  37 H :    0.117932
  38 O :    0.021195
  39 H :    0.121335
  40 H :    0.165059
  41 N :   -0.052229
  42 O :   -0.079894
  43 O :   -0.077811

  Mayer bond orders larger than 0.100000
B(  0-C ,  1-C ) :   1.4181 B(  0-C ,  5-C ) :   1.4138 B(  0-C , 11-H ) :   0.9480
B(  1-C ,  2-C ) :   1.4395 B(  1-C , 40-H ) :   0.9525 B(  2-C ,  3-N ) :   1.3170
B(  2-C , 12-H ) :   0.9336 B(  3-N ,  4-C ) :   1.3639 B(  3-N ,  6-C ) :   0.3220
B(  4-C ,  5-C ) :   1.4363 B(  4-C , 13-H ) :   0.9377 B(  5-C , 14-H ) :   0.9529
B(  6-C ,  7-C ) :   0.9612 B(  6-C , 15-H ) :   0.9330 B(  6-C , 19-C ) :   1.0433
B(  6-C , 38-O ) :   0.3492 B(  7-C ,  8-O ) :   1.9895 B(  7-C ,  9-O ) :   1.2940
B(  9-O , 10-C ) :   0.8805 B( 10-C , 16-H ) :   0.9635 B( 10-C , 17-H ) :   0.9663
B( 10-C , 39-H ) :   0.9649 B( 18-C , 19-C ) :   1.0389 B( 18-C , 28-N ) :   1.3876
B( 18-C , 29-O ) :   0.1853 B( 18-C , 41-N ) :   1.1485 B( 18-C , 42-O ) :   0.1119
B( 19-C , 20-C ) :   0.8218 B( 19-C , 30-H ) :   0.9069 B( 20-C , 21-C ) :   1.3496
B( 20-C , 25-C ) :   1.2989 B( 21-C , 22-C ) :   1.4034 B( 21-C , 31-H ) :   0.9739
B( 22-C , 23-C ) :   1.3982 B( 22-C , 32-H ) :   0.9824 B( 23-C , 24-C ) :   1.3971
B( 23-C , 33-H ) :   0.9664 B( 24-C , 25-C ) :   1.3726 B( 24-C , 34-H ) :   0.9603
B( 25-C , 26-O ) :   1.0971 B( 26-O , 27-C ) :   0.9346 B( 27-C , 35-H ) :   0.9647
B( 27-C , 36-H ) :   0.9568 B( 27-C , 37-H ) :   0.9644 B( 28-N , 29-O ) :   1.5126
B( 28-N , 38-O ) :   1.1568 B( 41-N , 42-O ) :   1.5152 B( 41-N , 43-O ) :   1.4984
B( 42-O , 43-O ) :   0.1515

Dispersion correction           -0.057761873
FINAL SINGLE POINT ENERGY     -1347.700789116004

DIPOLE MOMENT
-------------
                                X             Y             Z
Electronic contribution:     16.70612      -3.50473       0.13835
Nuclear contribution   :    -23.97551       6.65352      -1.42084
                        -----------------------------------------
Total Dipole Moment    :     -7.26939       3.14879      -1.28249
                        -----------------------------------------
Magnitude (a.u.)       :      8.02520
Magnitude (Debye)      :     20.39843

Dispersion correction in the Hessian             ... done   (      0.6 sec)

VIBRATIONAL FREQUENCIES
-----------------------

Scaling factor for frequencies =  1.000000000  (already applied!)

   0:         0.00 cm**-1
   1:         0.00 cm**-1
   2:         0.00 cm**-1
   3:         0.00 cm**-1
   4:         0.00 cm**-1
   5:         0.00 cm**-1
   6:      -542.16 cm**-1 ***imaginary mode***
   7:        17.09 cm**-1
   8:        32.63 cm**-1
   9:        39.97 cm**-1
  10:        51.66 cm**-1
  11:        53.57 cm**-1
  12:        61.10 cm**-1
  13:        70.54 cm**-1
  14:        74.32 cm**-1
  15:        87.79 cm**-1
  16:        99.56 cm**-1
  17:       103.94 cm**-1
  18:       130.44 cm**-1
  19:       149.13 cm**-1
  20:       152.02 cm**-1
  21:       160.98 cm**-1
  22:       176.61 cm**-1
  23:       184.09 cm**-1
  24:       197.50 cm**-1
  25:       218.39 cm**-1
  26:       238.40 cm**-1
  27:       249.82 cm**-1
  28:       262.60 cm**-1
  29:       285.13 cm**-1
  30:       300.52 cm**-1
  31:       321.14 cm**-1
  32:       344.58 cm**-1
  33:       360.62 cm**-1
  34:       393.79 cm**-1
  35:       441.85 cm**-1
  36:       451.84 cm**-1
  37:       476.32 cm**-1
  38:       489.62 cm**-1
  39:       518.06 cm**-1
  40:       558.44 cm**-1
  41:       583.27 cm**-1
  42:       612.93 cm**-1
  43:       631.59 cm**-1
  44:       636.17 cm**-1
  45:       660.11 cm**-1
  46:       710.83 cm**-1
  47:       723.50 cm**-1
  48:       739.91 cm**-1
  49:       756.82 cm**-1
  50:       767.66 cm**-1
  51:       773.92 cm**-1
  52:       776.72 cm**-1
  53:       781.18 cm**-1
  54:       788.03 cm**-1
  55:       804.72 cm**-1
  56:       818.56 cm**-1
  57:       853.30 cm**-1
  58:       874.29 cm**-1
  59:       893.75 cm**-1
  60:       901.66 cm**-1
  61:       962.68 cm**-1
  62:       969.45 cm**-1
  63:       978.14 cm**-1
  64:       994.65 cm**-1
  65:      1015.36 cm**-1
  66:      1030.36 cm**-1
  67:      1041.08 cm**-1
  68:      1041.66 cm**-1
  69:      1059.91 cm**-1
  70:      1073.07 cm**-1
  71:      1085.84 cm**-1
  72:      1093.62 cm**-1
  73:      1107.21 cm**-1
  74:      1113.58 cm**-1
  75:      1130.47 cm**-1
  76:      1141.58 cm**-1
  77:      1168.47 cm**-1
  78:      1170.78 cm**-1
  79:      1171.25 cm**-1
  80:      1176.03 cm**-1
  81:      1192.53 cm**-1
  82:      1196.53 cm**-1
  83:      1213.33 cm**-1
  84:      1217.34 cm**-1
  85:      1231.00 cm**-1
  86:      1239.84 cm**-1
  87:      1247.18 cm**-1
  88:      1288.76 cm**-1
  89:      1305.94 cm**-1
  90:      1324.84 cm**-1
  91:      1338.03 cm**-1
  92:      1340.14 cm**-1
  93:      1364.75 cm**-1
  94:      1381.48 cm**-1
  95:      1382.84 cm**-1
  96:      1398.19 cm**-1
  97:      1424.40 cm**-1
  98:      1465.86 cm**-1
  99:      1466.00 cm**-1
 100:      1471.42 cm**-1
 101:      1473.91 cm**-1
 102:      1480.43 cm**-1
 103:      1483.52 cm**-1
 104:      1491.15 cm**-1
 105:      1498.45 cm**-1
 106:      1526.10 cm**-1
 107:      1529.86 cm**-1
 108:      1541.68 cm**-1
 109:      1615.87 cm**-1
 110:      1648.26 cm**-1
 111:      1650.94 cm**-1
 112:      1664.21 cm**-1
 113:      1664.74 cm**-1
 114:      1789.56 cm**-1
 115:      3038.07 cm**-1
 116:      3074.53 cm**-1
 117:      3110.32 cm**-1
 118:      3130.49 cm**-1
 119:      3159.58 cm**-1
 120:      3166.44 cm**-1
 121:      3182.83 cm**-1
 122:      3195.78 cm**-1
 123:      3196.11 cm**-1
 124:      3196.92 cm**-1
 125:      3202.36 cm**-1
 126:      3212.46 cm**-1
 127:      3215.34 cm**-1
 128:      3229.90 cm**-1
 129:      3232.92 cm**-1
 130:      3234.19 cm**-1
 131:      3273.91 cm**-1

IR SPECTRUM
-----------

 Mode   freq       eps      Int      T**2         TX        TY        TZ
       cm**-1   L/(mol*cm) km/mol    a.u.
----------------------------------------------------------------------------
  7:     17.09   0.000029    0.15  0.000529  ( 0.000446  0.022725 -0.003575)
  8:     32.63   0.000049    0.25  0.000467  ( 0.014662 -0.013801  0.007832)
  9:     39.97   0.000537    2.71  0.004191  (-0.029468  0.051078  0.026722)
 10:     51.66   0.000021    0.11  0.000128  (-0.002401 -0.011059 -0.000402)
 11:     53.57   0.001064    5.38  0.006198  (-0.071236  0.015982 -0.029457)
 12:     61.10   0.000076    0.38  0.000386  (-0.005295 -0.018730  0.002755)
 13:     70.54   0.000171    0.86  0.000756  (-0.015738  0.007634  0.021213)
 14:     74.32   0.000150    0.76  0.000628  (-0.013775  0.020886 -0.001495)
 15:     87.79   0.000301    1.52  0.001069  ( 0.003684  0.023817  0.022092)
 16:     99.56   0.000196    0.99  0.000614  (-0.005677 -0.017556  0.016545)
 17:    103.94   0.001022    5.17  0.003069  ( 0.018921 -0.042601  0.029934)
 18:    130.44   0.000309    1.56  0.000739  ( 0.018555  0.019389  0.004292)
 19:    149.13   0.001217    6.15  0.002548  (-0.035777  0.030714  0.018012)
 20:    152.02   0.000276    1.39  0.000567  ( 0.023254  0.004191 -0.002880)
 21:    160.98   0.001145    5.79  0.002219  ( 0.026335 -0.035637 -0.015997)
 22:    176.61   0.006029   30.47  0.010653  (-0.095136  0.040022  0.000310)
 23:    184.09   0.000987    4.99  0.001672  (-0.014766 -0.012468 -0.036041)
 24:    197.50   0.000346    1.75  0.000547  ( 0.021728 -0.004086  0.007603)
 25:    218.39   0.000155    0.78  0.000221  ( 0.011018 -0.005506 -0.008328)
 26:    238.40   0.001212    6.13  0.001587  ( 0.026355 -0.027353 -0.012011)
 27:    249.82   0.000168    0.85  0.000210  (-0.010406  0.003802  0.009360)
 28:    262.60   0.001857    9.38  0.002207  ( 0.023889  0.037846 -0.014274)
 29:    285.13   0.000127    0.64  0.000139  (-0.001339  0.009410 -0.006981)
 30:    300.52   0.003055   15.44  0.003173  ( 0.003476  0.043961 -0.035042)
 31:    321.14   0.001680    8.49  0.001632  (-0.025002 -0.031313 -0.005155)
 32:    344.58   0.000919    4.64  0.000832  ( 0.010898  0.009941  0.024787)
 33:    360.62   0.006329   31.99  0.005477  ( 0.037874 -0.062586  0.011209)
 34:    393.79   0.000002    0.01  0.000001  ( 0.000977 -0.000593  0.000130)
 35:    441.85   0.002544   12.86  0.001797  (-0.031140 -0.028599  0.003047)
 36:    451.84   0.000965    4.88  0.000666  ( 0.022544 -0.012238 -0.002872)
 37:    476.32   0.000821    4.15  0.000538  (-0.021716 -0.007254 -0.003741)
 38:    489.62   0.001679    8.48  0.001070  ( 0.027836  0.010607  0.013519)
 39:    518.06   0.001102    5.57  0.000664  (-0.011776  0.016892 -0.015480)
 40:    558.44   0.001576    7.97  0.000881  (-0.019556  0.021915 -0.004260)
 41:    583.27   0.002901   14.66  0.001552  (-0.000476  0.027411  0.028293)
 42:    612.93   0.003991   20.17  0.002032  ( 0.042823  0.009301  0.010571)
 43:    631.59   0.010101   51.05  0.004991  (-0.044421  0.052746 -0.015343)
 44:    636.17   0.002821   14.26  0.001384  (-0.033619  0.015569 -0.003344)
 45:    660.11   0.000092    0.46  0.000043  (-0.006522  0.000671 -0.000590)
 46:    710.83   0.018284   92.40  0.008027  ( 0.013341  0.086286 -0.020092)
 47:    723.50   0.007768   39.25  0.003350  ( 0.020372 -0.053218  0.010159)
 48:    739.91   0.005247   26.52  0.002213  ( 0.041013  0.015244  0.017276)
 49:    756.82   0.001544    7.80  0.000637  (-0.001239 -0.024817 -0.004398)
 50:    767.66   0.013540   68.43  0.005504  (-0.048500  0.044679 -0.033997)
 51:    773.92   0.012494   63.14  0.005038  (-0.008132  0.063022 -0.031620)
 52:    776.72   0.001089    5.51  0.000438  (-0.001296  0.017582 -0.011265)
 53:    781.18   0.005927   29.95  0.002368  ( 0.045898  0.002888  0.015903)
 54:    788.03   0.009616   48.59  0.003808  ( 0.017669 -0.044886 -0.038483)
 55:    804.72   0.004425   22.36  0.001716  ( 0.006465 -0.036103 -0.019256)
 56:    818.56   0.003152   15.93  0.001202  (-0.014993  0.019997 -0.024018)
 57:    853.30   0.005233   26.45  0.001914  (-0.017363  0.015007 -0.037243)
 58:    874.29   0.002928   14.80  0.001045  ( 0.013976 -0.026745  0.011601)
 59:    893.75   0.000007    0.03  0.000002  (-0.000332  0.001462  0.000278)
 60:    901.66   0.020884  105.54  0.007228  (-0.018034  0.072400 -0.040756)
 61:    962.68   0.000826    4.17  0.000268  ( 0.010042  0.003959  0.012297)
 62:    969.45   0.002831   14.31  0.000911  ( 0.000500 -0.029594 -0.005944)
 63:    978.14   0.000262    1.32  0.000084  (-0.002987 -0.008594  0.000878)
 64:    994.65   0.000032    0.16  0.000010  ( 0.000960 -0.002914 -0.000817)
 65:   1015.36   0.000047    0.24  0.000015  (-0.002301 -0.002886 -0.000946)
 66:   1030.36   0.006992   35.34  0.002118  (-0.031045 -0.007401 -0.033154)
 67:   1041.08   0.001327    6.71  0.000398  ( 0.009943 -0.017177 -0.001982)
 68:   1041.66   0.011896   60.12  0.003564  ( 0.032658 -0.049689 -0.005318)
 69:   1059.91   0.000273    1.38  0.000080  ( 0.001922  0.002013 -0.008517)
 70:   1073.07   0.011086   56.02  0.003224  (-0.044970 -0.026760  0.022033)
 71:   1085.84   0.007908   39.96  0.002273  ( 0.014861  0.004943 -0.045027)
 72:   1093.62   0.019124   96.65  0.005457  (-0.044998  0.052047 -0.026897)
 73:   1107.21   0.004307   21.77  0.001214  (-0.021310 -0.017460  0.021332)
 74:   1113.58   0.003416   17.26  0.000957  ( 0.010657 -0.008403  0.027804)
 75:   1130.47   0.096923  489.81  0.026755  ( 0.025647 -0.132364  0.092614)
 76:   1141.58   0.068109  344.19  0.018618  ( 0.046631  0.078396 -0.101479)
 77:   1168.47   0.000928    4.69  0.000248  (-0.002533 -0.001695 -0.015448)
 78:   1170.78   0.000191    0.96  0.000051  ( 0.004043 -0.004460  0.003814)
 79:   1171.25   0.000464    2.35  0.000124  ( 0.010044  0.002486 -0.004080)
 80:   1176.03   0.001332    6.73  0.000354  ( 0.014564  0.007110 -0.009532)
 81:   1192.53   0.008779   44.37  0.002297  (-0.011772 -0.043814  0.015460)
 82:   1196.53   0.012382   62.58  0.003229  (-0.008215 -0.056063  0.004344)
 83:   1213.33   0.001784    9.01  0.000459  ( 0.016378  0.007972 -0.011266)
 84:   1217.34   0.001742    8.80  0.000447  (-0.010829 -0.017185 -0.005836)
 85:   1231.00   0.009547   48.25  0.002420  ( 0.024134  0.023581 -0.035802)
 86:   1239.84   0.003665   18.52  0.000923  ( 0.021796 -0.012699  0.016919)
 87:   1247.18   0.125020  631.80  0.031282  ( 0.019737  0.152782 -0.086890)
 88:   1288.76   0.069155  349.48  0.016745  ( 0.015030 -0.121010  0.043312)
 89:   1305.94   0.059504  300.71  0.014219  (-0.061828  0.025976  0.098598)
 90:   1324.84   0.006054   30.60  0.001426  (-0.004024  0.037304  0.004280)
 91:   1338.03   0.057912  292.67  0.013507  ( 0.008548 -0.070747  0.091806)
 92:   1340.14   0.031499  159.18  0.007335  ( 0.011561 -0.064894  0.054681)
 93:   1364.75   0.124248  627.90  0.028411  ( 0.057789  0.089204 -0.130820)
 94:   1381.48   0.001910    9.65  0.000431  ( 0.010210 -0.001608  0.018016)
 95:   1382.84   0.060744  306.97  0.013708  (-0.076572 -0.050163  0.072996)
 96:   1398.19   0.042177  213.14  0.009413  ( 0.081143 -0.049021  0.020645)
 97:   1424.40   0.013741   69.44  0.003010  ( 0.010637  0.051830 -0.014524)
 98:   1465.86   0.003797   19.19  0.000808  ( 0.027338 -0.005967 -0.005038)
 99:   1466.00   0.005635   28.48  0.001199  (-0.002484  0.017335  0.029880)
100:   1471.42   0.004806   24.29  0.001019  (-0.001959 -0.022977  0.022080)
101:   1473.91   0.003154   15.94  0.000668  (-0.011458  0.022481 -0.005574)
102:   1480.43   0.016363   82.69  0.003449  ( 0.022364  0.053495  0.009342)
103:   1483.52   0.004659   23.54  0.000980  (-0.002896  0.010994  0.029167)
104:   1491.15   0.015591   78.79  0.003263  (-0.007099 -0.000677 -0.056675)
105:   1498.45   0.011408   57.65  0.002376  (-0.018721  0.012621  0.043197)
106:   1526.10   0.000458    2.32  0.000094  (-0.009559  0.000835  0.001273)
107:   1529.86   0.025677  129.76  0.005238  ( 0.070476 -0.014097  0.008491)
108:   1541.68   0.040087  202.58  0.008114  (-0.039754  0.031741  0.074340)
109:   1615.87   0.219000  1106.74  0.042294  (-0.198171 -0.022461  0.050177)
110:   1648.26   0.001741    8.80  0.000330  ( 0.001874  0.003393  0.017735)
111:   1650.94   0.001312    6.63  0.000248  ( 0.007494  0.000181 -0.013849)
112:   1664.21   0.012395   62.64  0.002324  (-0.045241  0.011754  0.011805)
113:   1664.74   0.011820   59.73  0.002216  (-0.002290  0.020592  0.042266)
114:   1789.56   0.088988  449.71  0.015518  ( 0.038118 -0.019707  0.116946)
115:   3038.07   0.011935   60.31  0.001226  ( 0.028471  0.007396 -0.018991)
116:   3074.53   0.005036   25.45  0.000511  ( 0.005879  0.021234  0.005071)
117:   3110.32   0.007521   38.01  0.000755  (-0.011894  0.020752 -0.013510)
118:   3130.49   0.001303    6.59  0.000130  ( 0.006739  0.006082 -0.006894)
119:   3159.58   0.003305   16.70  0.000326  ( 0.017326 -0.002427 -0.004509)
120:   3166.44   0.003598   18.18  0.000355  (-0.000863 -0.010487 -0.015615)
121:   3182.83   0.000778    3.93  0.000076  (-0.007521 -0.004140  0.001605)
122:   3195.78   0.001788    9.03  0.000175  ( 0.001286 -0.007610  0.010723)
123:   3196.11   0.001399    7.07  0.000137  ( 0.008639  0.007511  0.002357)
124:   3196.92   0.000688    3.48  0.000067  ( 0.006077 -0.000605  0.005463)
125:   3202.36   0.000837    4.23  0.000082  (-0.008970  0.000706  0.000766)
126:   3212.46   0.000073    0.37  0.000007  ( 0.002107 -0.000827 -0.001405)
127:   3215.34   0.002605   13.17  0.000253  (-0.001325  0.007663  0.013871)
128:   3229.90   0.000228    1.15  0.000022  (-0.000402 -0.000698 -0.004620)
129:   3232.92   0.000381    1.93  0.000037  (-0.004919 -0.002158  0.002816)
130:   3234.19   0.000324    1.64  0.000031  (-0.005422  0.001321  0.000366)
131:   3273.91   0.000514    2.60  0.000049  (-0.002795  0.000616  0.006384)

--------------------------
THERMOCHEMISTRY AT 298.15K
--------------------------

Temperature         ... 298.15 K
Pressure            ... 1.00 atm
Total Mass          ... 375.34 AMU

Throughout the following assumptions are being made:
  (1) The electronic state is orbitally nondegenerate
  (2) There are no thermally accessible electronically excited states
  (3) Hindered rotations indicated by low frequency modes are not
      treated as such but are treated as vibrations and this may
      cause some error
  (4) All equations used are the standard statistical mechanics
      equations for an ideal gas
  (5) All vibrations are strictly harmonic

freq.      17.09  E(vib)   ...       0.57
freq.      32.63  E(vib)   ...       0.55
freq.      39.97  E(vib)   ...       0.54
freq.      51.66  E(vib)   ...       0.52
freq.      53.57  E(vib)   ...       0.52
freq.      61.10  E(vib)   ...       0.51
freq.      70.54  E(vib)   ...       0.50
freq.      74.32  E(vib)   ...       0.49
freq.      87.79  E(vib)   ...       0.48
freq.      99.56  E(vib)   ...       0.46
freq.     103.94  E(vib)   ...       0.46
freq.     130.44  E(vib)   ...       0.43
freq.     149.13  E(vib)   ...       0.40
freq.     152.02  E(vib)   ...       0.40
freq.     160.98  E(vib)   ...       0.39
freq.     176.61  E(vib)   ...       0.38
freq.     184.09  E(vib)   ...       0.37
freq.     197.50  E(vib)   ...       0.35
freq.     218.39  E(vib)   ...       0.33
freq.     238.40  E(vib)   ...       0.32
freq.     249.82  E(vib)   ...       0.31
freq.     262.60  E(vib)   ...       0.29
freq.     285.13  E(vib)   ...       0.28
freq.     300.52  E(vib)   ...       0.26
freq.     321.14  E(vib)   ...       0.25
freq.     344.58  E(vib)   ...       0.23
freq.     360.62  E(vib)   ...       0.22
freq.     393.79  E(vib)   ...       0.20
freq.     441.85  E(vib)   ...       0.17
freq.     451.84  E(vib)   ...       0.16
freq.     476.32  E(vib)   ...       0.15
freq.     489.62  E(vib)   ...       0.15
freq.     518.06  E(vib)   ...       0.13
freq.     558.44  E(vib)   ...       0.12
freq.     583.27  E(vib)   ...       0.11
freq.     612.93  E(vib)   ...       0.10
freq.     631.59  E(vib)   ...       0.09
freq.     636.17  E(vib)   ...       0.09
freq.     660.11  E(vib)   ...       0.08
freq.     710.83  E(vib)   ...       0.07
freq.     723.50  E(vib)   ...       0.06
freq.     739.91  E(vib)   ...       0.06
freq.     756.82  E(vib)   ...       0.06
freq.     767.66  E(vib)   ...       0.06
freq.     773.92  E(vib)   ...       0.05
freq.     776.72  E(vib)   ...       0.05
freq.     781.18  E(vib)   ...       0.05
freq.     788.03  E(vib)   ...       0.05
freq.     804.72  E(vib)   ...       0.05
freq.     818.56  E(vib)   ...       0.05
freq.     853.30  E(vib)   ...       0.04
freq.     874.29  E(vib)   ...       0.04
freq.     893.75  E(vib)   ...       0.03
freq.     901.66  E(vib)   ...       0.03
freq.     962.68  E(vib)   ...       0.03
freq.     969.45  E(vib)   ...       0.03
freq.     978.14  E(vib)   ...       0.03
freq.     994.65  E(vib)   ...       0.02
freq.    1015.36  E(vib)   ...       0.02
freq.    1030.36  E(vib)   ...       0.02
freq.    1041.08  E(vib)   ...       0.02
freq.    1041.66  E(vib)   ...       0.02
freq.    1059.91  E(vib)   ...       0.02
freq.    1073.07  E(vib)   ...       0.02
freq.    1085.84  E(vib)   ...       0.02
freq.    1093.62  E(vib)   ...       0.02
freq.    1107.21  E(vib)   ...       0.02
freq.    1113.58  E(vib)   ...       0.01
freq.    1130.47  E(vib)   ...       0.01
freq.    1141.58  E(vib)   ...       0.01
freq.    1168.47  E(vib)   ...       0.01
freq.    1170.78  E(vib)   ...       0.01
freq.    1171.25  E(vib)   ...       0.01
freq.    1176.03  E(vib)   ...       0.01
freq.    1192.53  E(vib)   ...       0.01
freq.    1196.53  E(vib)   ...       0.01
freq.    1213.33  E(vib)   ...       0.01
freq.    1217.34  E(vib)   ...       0.01
freq.    1231.00  E(vib)   ...       0.01
freq.    1239.84  E(vib)   ...       0.01
freq.    1247.18  E(vib)   ...       0.01
freq.    1288.76  E(vib)   ...       0.01
freq.    1305.94  E(vib)   ...       0.01
freq.    1324.84  E(vib)   ...       0.01
freq.    1338.03  E(vib)   ...       0.01
freq.    1340.14  E(vib)   ...       0.01
freq.    1364.75  E(vib)   ...       0.01
freq.    1381.48  E(vib)   ...       0.01
freq.    1382.84  E(vib)   ...       0.01
freq.    1398.19  E(vib)   ...       0.00
freq.    1424.40  E(vib)   ...       0.00
freq.    1465.86  E(vib)   ...       0.00
freq.    1466.00  E(vib)   ...       0.00
freq.    1471.42  E(vib)   ...       0.00
freq.    1473.91  E(vib)   ...       0.00
freq.    1480.43  E(vib)   ...       0.00
freq.    1483.52  E(vib)   ...       0.00
freq.    1491.15  E(vib)   ...       0.00
freq.    1498.45  E(vib)   ...       0.00
freq.    1526.10  E(vib)   ...       0.00
freq.    1529.86  E(vib)   ...       0.00
freq.    1541.68  E(vib)   ...       0.00
freq.    1615.87  E(vib)   ...       0.00
freq.    1648.26  E(vib)   ...       0.00
freq.    1650.94  E(vib)   ...       0.00
freq.    1664.21  E(vib)   ...       0.00
freq.    1664.74  E(vib)   ...       0.00
freq.    1789.56  E(vib)   ...       0.00
freq.    3038.07  E(vib)   ...       0.00
freq.    3074.53  E(vib)   ...       0.00
freq.    3110.32  E(vib)   ...       0.00
freq.    3130.49  E(vib)   ...       0.00
freq.    3159.58  E(vib)   ...       0.00
freq.    3166.44  E(vib)   ...       0.00
freq.    3182.83  E(vib)   ...       0.00
freq.    3195.78  E(vib)   ...       0.00
freq.    3196.11  E(vib)   ...       0.00
freq.    3196.92  E(vib)   ...       0.00
freq.    3202.36  E(vib)   ...       0.00
freq.    3212.46  E(vib)   ...       0.00
freq.    3215.34  E(vib)   ...       0.00
freq.    3229.90  E(vib)   ...       0.00
freq.    3232.92  E(vib)   ...       0.00
freq.    3234.19  E(vib)   ...       0.00
freq.    3273.91  E(vib)   ...       0.00

------------
INNER ENERGY
------------

The inner energy is: U= E(el) + E(ZPE) + E(vib) + E(rot) + E(trans)
    E(el)   - is the total energy from the electronic structure calculation
              = E(kin-el) + E(nuc-el) + E(el-el) + E(nuc-nuc)
    E(ZPE)  - the the zero temperature vibrational energy from the frequency calculation
    E(vib)  - the the finite temperature correction to E(ZPE) due to population
              of excited vibrational states
    E(rot)  - is the rotational thermal energy
    E(trans)- is the translational thermal energy

Summary of contributions to the inner energy U:
Electronic energy                ...  -1347.70078912 Eh
Zero point energy                ...      0.33482090 Eh     210.10 kcal/mol
Thermal vibrational correction   ...      0.02170283 Eh      13.62 kcal/mol
Thermal rotational correction    ...      0.00141627 Eh       0.89 kcal/mol

Rotational constants in cm-1:     0.007959     0.006837     0.004776

                             ****ORCA TERMINATED NORMALLY****
TOTAL RUN TIME: 0 days 3 hours 12 minutes 31 seconds 860 msec
