                         Program Version 5.0.4 -  RELEASE  -
|  1> %pal nprocs 24 end
|  2> %maxcore 5000
|  3> ! PBE0 D3BJ def2-TZVP TightSCF OPTTS FREQ TightOpt
|  4> ! CPCM(dmso)
|  5> %scf
|  6> MaxIter 800
|  7> end
|  8>
|  9> %geom
| 10> MaxIter 800
| 11> MaxStep 0.15
| 12> end
| 13>
| 14> *xyz 0 1
| 15> C      -4.31499700      0.98920500      0.17124600
| 16> C      -3.76906700      0.71405100     -1.08196600
| 17> C      -2.39066700      0.78917800     -1.23614400
| 18> N      -1.59183300      1.10955500     -0.21854300
| 19> C      -2.09688800      1.37585500      0.98540500
| 20> C      -3.46665500      1.33217600      1.22160100
| 21> C       0.37511100      1.04890300     -0.62320600
| 22> C       0.61059300      2.36012800      0.05102700
| 23> O       0.92916400      2.46076300      1.21326300
| 24> O       0.38656200      3.37650200     -0.76325000
| 25> C       0.58158700      4.67845100     -0.22044000
| 26> H      -5.39519500      0.93761600      0.32681400
| 27> H      -1.90995900      0.57662900     -2.19575100
| 28> H      -1.38440800      1.63216200      1.77460100
| 29> H      -3.85280100      1.55815800      2.21684300
| 30> H       0.10163700      1.03016200     -1.67426700
| 31> H       0.34667900      5.38232200     -1.02610400
| 32> H       1.62352700      4.80770100      0.10547500
| 33> C       2.10040400     -0.46286900      0.12892600
| 34> C       0.63496600     -0.23636100      0.14848000
| 35> C      -0.14746500     -1.41160700     -0.40412500
| 36> C       0.11511400     -1.89466100     -1.68468600
| 37> C      -0.63082900     -2.93775400     -2.23251400
| 38> C      -1.65510900     -3.50638900     -1.47842000
| 39> C      -1.93115900     -3.04718900     -0.19044600
| 40> C      -1.17705700     -2.00100600      0.35514000
| 41> O      -1.38074900     -1.49510900      1.58716400
| 42> C      -2.46770100     -1.95812200      2.35380700
| 43> N       2.86420400      0.29688400     -0.60064300
| 44> O       4.10013800      0.20779800     -0.72462500
| 45> H       0.32615000     -0.07002700      1.19248400
| 46> H       0.91861100     -1.43194200     -2.26601700
| 47> H      -0.41399600     -3.30084200     -3.23931200
| 48> H      -2.25276900     -4.32338100     -1.89060600
| 49> H      -2.73531200     -3.50689900      0.38461300
| 50> H      -2.36226200     -3.02745700      2.60005000
| 51> H      -3.42418700     -1.79853500      1.82907800
| 52> H      -2.46483200     -1.37223800      3.28097300
| 53> O       2.21361000      1.25020200     -1.26136700
| 54> H      -0.08821200      4.84303500      0.63561400
| 55> H      -4.39701100      0.44165700     -1.93179800
| 56> F       2.64324100     -1.45787200      0.81574000
| 57> *
| 58>
| 59>                          ****END OF INPUT****
 Total Charge           Charge          ....    0
 Multiplicity           Mult            ....    1
 Number of Electrons    NEL             ....  182
Dispersion correction           -0.053810751
FINAL SINGLE POINT ENERGY     -1242.489632088616
Dispersion correction            ... done
Dispersion correction           -0.053598442
FINAL SINGLE POINT ENERGY     -1242.490273881931
Dispersion correction            ... done
Dispersion correction           -0.053467841
FINAL SINGLE POINT ENERGY     -1242.488565367208
Dispersion correction            ... done
FINAL SINGLE POINT ENERGY     -1242.485323247897
FINAL SINGLE POINT ENERGY     -1242.485156758764
FINAL SINGLE POINT ENERGY     -1242.484287231290
FINAL SINGLE POINT ENERGY     -1242.483929489958
FINAL SINGLE POINT ENERGY     -1242.484946341503
FINAL SINGLE POINT ENERGY     -1242.490144305988
FINAL SINGLE POINT ENERGY     -1242.491066690782
FINAL SINGLE POINT ENERGY     -1242.491519634186
FINAL SINGLE POINT ENERGY     -1242.491544192815
FINAL SINGLE POINT ENERGY     -1242.491555688852
FINAL SINGLE POINT ENERGY     -1242.491560769292
FINAL SINGLE POINT ENERGY     -1242.491564586863
FINAL SINGLE POINT ENERGY     -1242.491572620509
FINAL SINGLE POINT ENERGY     -1242.491574878617
Dispersion correction           -0.053624702
FINAL SINGLE POINT ENERGY     -1242.491577106153
Dispersion correction            ... done
Dispersion correction           -0.053619278
FINAL SINGLE POINT ENERGY     -1242.491577687546
Dispersion correction            ... done
                    ***********************HURRAY********************

CARTESIAN COORDINATES (ANGSTROEM)
---------------------------------
  C     -4.321792    1.028779    0.111661
  C     -3.764933    0.771350   -1.132275
  C     -2.391500    0.831817   -1.267108
  N     -1.601224    1.123826   -0.238426
  C     -2.122001    1.373397    0.958419
  C     -3.487933    1.339609    1.173789
  C      0.379247    1.051610   -0.624912
  C      0.602551    2.362604    0.047685
  O      0.907109    2.466529    1.211467
  O      0.392615    3.373633   -0.776604
  C      0.588349    4.680560   -0.226322
  H     -5.395526    0.987696    0.251188
  H     -1.907220    0.632015   -2.216686
  H     -1.425129    1.603246    1.756400
  H     -3.880929    1.548401    2.160236
  H      0.113025    1.027298   -1.667578
  H      0.386477    5.372968   -1.039055
  H      1.614575    4.791524    0.124213
  C      2.079207   -0.477426    0.124219
  C      0.620912   -0.228645    0.151376
  C     -0.165995   -1.401020   -0.394138
  C      0.069650   -1.865910   -1.678753
  C     -0.671079   -2.909136   -2.214958
  C     -1.662165   -3.497107   -1.444651
  C     -1.907719   -3.058658   -0.150750
  C     -1.157568   -2.013763    0.382796
  O     -1.330602   -1.531496    1.631489
  C     -2.409331   -2.027977    2.400615
  N      2.855853    0.271020   -0.582916
  O      4.103002    0.164741   -0.700862
  H      0.324027   -0.052837    1.188614
  H      0.845593   -1.392378   -2.272846
  H     -0.476339   -3.256152   -3.222388
  H     -2.253989   -4.311700   -1.846599
  H     -2.682068   -3.532707    0.437026
  H     -2.285705   -3.093036    2.615033
  H     -3.362254   -1.865551    1.889051
  H     -2.396635   -1.465780    3.332006
  O      2.228461    1.246134   -1.239966
  H     -0.103256    4.848752    0.599361
  H     -4.378735    0.523859   -1.988536
  F      2.601152   -1.481253    0.813800

 Multiplicity           Mult            ....    1
 Number of Electrons    NEL             ....  182
 Basis Dimension        Dim             ....  877

ORBITAL ENERGIES
----------------

  NO   OCC          E(Eh)            E(eV)
   0   2.0000     -24.806987      -675.0324
   1   2.0000     -19.267395      -524.2925
   2   2.0000     -19.247832      -523.7601
   3   2.0000     -19.216871      -522.9177
   4   2.0000     -19.207996      -522.6761
   5   2.0000     -19.185309      -522.0588
   6   2.0000     -14.561962      -396.2511
   7   2.0000     -14.443107      -393.0169
   8   2.0000     -10.369778      -282.1760
   9   2.0000     -10.334488      -281.2157
  10   2.0000     -10.331903      -281.1454
  11   2.0000     -10.294512      -280.1279
  12   2.0000     -10.285699      -279.8881
  13   2.0000     -10.285360      -279.8789
  14   2.0000     -10.273478      -279.5556
  15   2.0000     -10.272106      -279.5182
  16   2.0000     -10.267633      -279.3965
  17   2.0000     -10.260550      -279.2038
  18   2.0000     -10.251018      -278.9444
  19   2.0000     -10.250881      -278.9407
  20   2.0000     -10.244062      -278.7551
  21   2.0000     -10.233444      -278.4662
  22   2.0000     -10.232184      -278.4319
  23   2.0000     -10.228389      -278.3286
  24   2.0000     -10.224232      -278.2155
  25   2.0000      -1.291605       -35.1464
  26   2.0000      -1.194014       -32.4908
  27   2.0000      -1.158656       -31.5286
  28   2.0000      -1.111062       -30.2335
  29   2.0000      -1.066759       -29.0280
  30   2.0000      -1.025374       -27.9018
  31   2.0000      -1.018867       -27.7248
  32   2.0000      -0.905311       -24.6348
  33   2.0000      -0.874946       -23.8085
  34   2.0000      -0.857059       -23.3218
  35   2.0000      -0.834679       -22.7128
  36   2.0000      -0.815801       -22.1991
  37   2.0000      -0.797084       -21.6898
  38   2.0000      -0.781497       -21.2656
  39   2.0000      -0.757398       -20.6098
  40   2.0000      -0.721754       -19.6399
  41   2.0000      -0.701403       -19.0861
  42   2.0000      -0.682076       -18.5602
  43   2.0000      -0.668749       -18.1976
  44   2.0000      -0.639733       -17.4080
  45   2.0000      -0.626152       -17.0385
  46   2.0000      -0.617320       -16.7981
  47   2.0000      -0.594990       -16.1905
  48   2.0000      -0.584212       -15.8972
  49   2.0000      -0.572665       -15.5830
  50   2.0000      -0.557931       -15.1821
  51   2.0000      -0.549415       -14.9503
  52   2.0000      -0.543126       -14.7792
  53   2.0000      -0.531903       -14.4738
  54   2.0000      -0.523716       -14.2510
  55   2.0000      -0.517710       -14.0876
  56   2.0000      -0.514657       -14.0045
  57   2.0000      -0.506915       -13.7938
  58   2.0000      -0.498827       -13.5738
  59   2.0000      -0.495484       -13.4828
  60   2.0000      -0.492752       -13.4085
  61   2.0000      -0.485850       -13.2206
  62   2.0000      -0.475827       -12.9479
  63   2.0000      -0.467077       -12.7098
  64   2.0000      -0.463160       -12.6032
  65   2.0000      -0.455368       -12.3912
  66   2.0000      -0.454332       -12.3630
  67   2.0000      -0.452228       -12.3058
  68   2.0000      -0.435474       -11.8499
  69   2.0000      -0.429741       -11.6939
  70   2.0000      -0.427330       -11.6283
  71   2.0000      -0.419199       -11.4070
  72   2.0000      -0.415633       -11.3099
  73   2.0000      -0.398501       -10.8438
  74   2.0000      -0.396597       -10.7919
  75   2.0000      -0.387520       -10.5450
  76   2.0000      -0.383024       -10.4226
  77   2.0000      -0.372843       -10.1456
  78   2.0000      -0.362882        -9.8745
  79   2.0000      -0.348412        -9.4808
  80   2.0000      -0.343654        -9.3513
  81   2.0000      -0.336147        -9.1470
  82   2.0000      -0.328763        -8.9461
  83   2.0000      -0.323882        -8.8133
  84   2.0000      -0.307749        -8.3743
  85   2.0000      -0.301865        -8.2142
  86   2.0000      -0.299815        -8.1584
  87   2.0000      -0.277861        -7.5610
  88   2.0000      -0.274984        -7.4827
  89   2.0000      -0.243949        -6.6382
  90   2.0000      -0.222334        -6.0500
  91   0.0000      -0.056332        -1.5329
  92   0.0000      -0.042191        -1.1481
  93   0.0000      -0.033165        -0.9025
  94   0.0000      -0.020212        -0.5500
  95   0.0000      -0.003697        -0.1006

MULLIKEN ATOMIC CHARGES
-----------------------
   0 C :   -0.105556
   1 C :   -0.154152
   2 C :   -0.017944
   3 N :   -0.117503
   4 C :   -0.009240
   5 C :   -0.146111
   6 C :    0.050256
   7 C :    0.316490
   8 O :   -0.391972
   9 O :   -0.215973
  10 C :   -0.265293
  11 H :    0.176186
  12 H :    0.176640
  13 H :    0.181124
  14 H :    0.175716
  15 H :    0.186454
  16 H :    0.165505
  17 H :    0.156800
  18 C :    0.089824
  19 C :    0.052280
  20 C :   -0.039964
  21 C :   -0.175951
  22 C :   -0.196023
  23 C :   -0.139397
  24 C :   -0.298726
  25 C :    0.273028
  26 O :   -0.266759
  27 C :   -0.279092
  28 N :    0.447192
  29 O :   -0.574919
  30 H :    0.129305
  31 H :    0.163521
  32 H :    0.147933
  33 H :    0.153731
  34 H :    0.165497
  35 H :    0.159760
  36 H :    0.153630
  37 H :    0.160861
  38 O :   -0.445515
  39 H :    0.155797
  40 H :    0.177301
  41 F :   -0.174742
Sum of atomic charges:   -0.0000000

LOEWDIN ATOMIC CHARGES
----------------------
   0 C :   -0.086439
   1 C :   -0.121128
   2 C :   -0.155080
   3 N :    0.260337
   4 C :   -0.157022
   5 C :   -0.120163
   6 C :   -0.055343
   7 C :   -0.529694
   8 O :    0.092943
   9 O :    0.276695
  10 C :   -0.298245
  11 H :    0.165211
  12 H :    0.160980
  13 H :    0.160139
  14 H :    0.165496
  15 H :    0.168011
  16 H :    0.123323
  17 H :    0.120603
  18 C :   -0.360328
  19 C :   -0.182819
  20 C :   -0.108451
  21 C :   -0.104369
  22 C :   -0.161451
  23 C :   -0.141251
  24 C :   -0.135686
  25 C :   -0.234243
  26 O :    0.254530
  27 C :   -0.326628
  28 N :   -0.026984
  29 O :   -0.248228
  30 H :    0.190902
  31 H :    0.164517
  32 H :    0.152970
  33 H :    0.155452
  34 H :    0.161175
  35 H :    0.118513
  36 H :    0.117788
  37 H :    0.122693
  38 O :   -0.079009
  39 H :    0.119962
  40 H :    0.165309
  41 F :    0.215011

  Mayer bond orders larger than 0.100000
B(  0-C ,  1-C ) :   1.4117 B(  0-C ,  5-C ) :   1.4242 B(  0-C , 11-H ) :   0.9475
B(  1-C ,  2-C ) :   1.4423 B(  1-C , 40-H ) :   0.9523 B(  2-C ,  3-N ) :   1.3556
B(  2-C , 12-H ) :   0.9349 B(  3-N ,  4-C ) :   1.3251 B(  3-N ,  6-C ) :   0.3352
B(  4-C ,  5-C ) :   1.4347 B(  4-C , 13-H ) :   0.9331 B(  5-C , 14-H ) :   0.9528
B(  6-C ,  7-C ) :   0.9659 B(  6-C , 15-H ) :   0.9252 B(  6-C , 19-C ) :   1.0647
B(  6-C , 38-O ) :   0.3576 B(  7-C ,  8-O ) :   1.9716 B(  7-C ,  9-O ) :   1.2850
B(  7-C , 38-O ) :   0.1098 B(  9-O , 10-C ) :   0.8841 B( 10-C , 16-H ) :   0.9640
B( 10-C , 17-H ) :   0.9673 B( 10-C , 39-H ) :   0.9658 B( 18-C , 19-C ) :   1.0697
B( 18-C , 28-N ) :   1.5927 B( 18-C , 29-O ) :   0.2563 B( 18-C , 38-O ) :   0.1120
B( 18-C , 41-F ) :   1.1625 B( 19-C , 20-C ) :   0.8253 B( 19-C , 30-H ) :   0.9030
B( 20-C , 21-C ) :   1.3669 B( 20-C , 25-C ) :   1.2873 B( 21-C , 22-C ) :   1.3977
B( 21-C , 31-H ) :   0.9739 B( 22-C , 23-C ) :   1.3956 B( 22-C , 32-H ) :   0.9816
B( 23-C , 24-C ) :   1.3953 B( 23-C , 33-H ) :   0.9656 B( 24-C , 25-C ) :   1.3789
B( 24-C , 34-H ) :   0.9607 B( 25-C , 26-O ) :   1.1078 B( 26-O , 27-C ) :   0.9330
B( 27-C , 35-H ) :   0.9575 B( 27-C , 36-H ) :   0.9642 B( 27-C , 37-H ) :   0.9652
B( 28-N , 29-O ) :   1.2689 B( 28-N , 38-O ) :   1.0545

Dispersion correction           -0.053620462
FINAL SINGLE POINT ENERGY     -1242.491577794774

DIPOLE MOMENT
-------------
                                X             Y             Z
Electronic contribution:     15.63704      -1.89315      -0.56795
Nuclear contribution   :    -23.70011       2.08954       1.04443
                        -----------------------------------------
Total Dipole Moment    :     -8.06307       0.19639       0.47648
                        -----------------------------------------
Magnitude (a.u.)       :      8.07952
Magnitude (Debye)      :     20.53652

Dispersion correction in the Hessian             ... done   (      0.6 sec)

VIBRATIONAL FREQUENCIES
-----------------------

Scaling factor for frequencies =  1.000000000  (already applied!)

   0:         0.00 cm**-1
   1:         0.00 cm**-1
   2:         0.00 cm**-1
   3:         0.00 cm**-1
   4:         0.00 cm**-1
   5:         0.00 cm**-1
   6:      -533.82 cm**-1 ***imaginary mode***
   7:        21.78 cm**-1
   8:        38.40 cm**-1
   9:        44.31 cm**-1
  10:        55.30 cm**-1
  11:        65.52 cm**-1
  12:        69.61 cm**-1
  13:        80.19 cm**-1
  14:        82.15 cm**-1
  15:       105.59 cm**-1
  16:       109.40 cm**-1
  17:       140.82 cm**-1
  18:       155.51 cm**-1
  19:       158.10 cm**-1
  20:       173.69 cm**-1
  21:       186.96 cm**-1
  22:       204.51 cm**-1
  23:       214.27 cm**-1
  24:       230.11 cm**-1
  25:       248.85 cm**-1
  26:       264.75 cm**-1
  27:       280.62 cm**-1
  28:       298.52 cm**-1
  29:       324.28 cm**-1
  30:       339.48 cm**-1
  31:       377.70 cm**-1
  32:       380.68 cm**-1
  33:       399.76 cm**-1
  34:       445.65 cm**-1
  35:       481.51 cm**-1
  36:       492.17 cm**-1
  37:       554.72 cm**-1
  38:       582.40 cm**-1
  39:       600.06 cm**-1
  40:       609.96 cm**-1
  41:       628.68 cm**-1
  42:       640.90 cm**-1
  43:       659.68 cm**-1
  44:       678.19 cm**-1
  45:       701.23 cm**-1
  46:       714.26 cm**-1
  47:       733.58 cm**-1
  48:       764.50 cm**-1
  49:       768.90 cm**-1
  50:       776.70 cm**-1
  51:       778.81 cm**-1
  52:       807.96 cm**-1
  53:       840.46 cm**-1
  54:       875.19 cm**-1
  55:       895.57 cm**-1
  56:       896.33 cm**-1
  57:       963.51 cm**-1
  58:       970.49 cm**-1
  59:       982.77 cm**-1
  60:       997.15 cm**-1
  61:      1018.37 cm**-1
  62:      1033.25 cm**-1
  63:      1041.70 cm**-1
  64:      1044.83 cm**-1
  65:      1060.23 cm**-1
  66:      1071.39 cm**-1
  67:      1083.81 cm**-1
  68:      1094.71 cm**-1
  69:      1108.93 cm**-1
  70:      1113.36 cm**-1
  71:      1122.19 cm**-1
  72:      1141.65 cm**-1
  73:      1168.80 cm**-1
  74:      1171.40 cm**-1
  75:      1172.04 cm**-1
  76:      1175.04 cm**-1
  77:      1191.08 cm**-1
  78:      1195.87 cm**-1
  79:      1212.81 cm**-1
  80:      1218.15 cm**-1
  81:      1223.92 cm**-1
  82:      1238.08 cm**-1
  83:      1277.90 cm**-1
  84:      1283.10 cm**-1
  85:      1303.41 cm**-1
  86:      1316.88 cm**-1
  87:      1323.87 cm**-1
  88:      1341.19 cm**-1
  89:      1376.54 cm**-1
  90:      1387.60 cm**-1
  91:      1403.45 cm**-1
  92:      1426.49 cm**-1
  93:      1465.41 cm**-1
  94:      1466.31 cm**-1
  95:      1472.59 cm**-1
  96:      1473.60 cm**-1
  97:      1481.13 cm**-1
  98:      1483.61 cm**-1
  99:      1493.86 cm**-1
 100:      1498.71 cm**-1
 101:      1528.51 cm**-1
 102:      1539.24 cm**-1
 103:      1648.30 cm**-1
 104:      1650.02 cm**-1
 105:      1664.73 cm**-1
 106:      1665.90 cm**-1
 107:      1762.27 cm**-1
 108:      1782.01 cm**-1
 109:      3038.58 cm**-1
 110:      3072.93 cm**-1
 111:      3090.06 cm**-1
 112:      3111.02 cm**-1
 113:      3156.86 cm**-1
 114:      3166.78 cm**-1
 115:      3179.85 cm**-1
 116:      3192.28 cm**-1
 117:      3196.41 cm**-1
 118:      3201.14 cm**-1
 119:      3206.45 cm**-1
 120:      3213.19 cm**-1
 121:      3215.22 cm**-1
 122:      3230.40 cm**-1
 123:      3232.15 cm**-1
 124:      3234.58 cm**-1
 125:      3280.81 cm**-1

IR SPECTRUM
-----------

 Mode   freq       eps      Int      T**2         TX        TY        TZ
       cm**-1   L/(mol*cm) km/mol    a.u.
----------------------------------------------------------------------------
  7:     21.78   0.000059    0.30  0.000850  (-0.004102  0.011158  0.026621)
  8:     38.40   0.000253    1.28  0.002055  (-0.015577  0.023492  0.035499)
  9:     44.31   0.000129    0.65  0.000906  ( 0.004568 -0.027798  0.010607)
 10:     55.30   0.000736    3.72  0.004152  (-0.061502  0.003919 -0.018810)
 11:     65.52   0.000170    0.86  0.000811  ( 0.015074  0.013114  0.020295)
 12:     69.61   0.000226    1.14  0.001014  (-0.004127  0.030096  0.009527)
 13:     80.19   0.001816    9.18  0.007068  ( 0.049814 -0.046290 -0.049436)
 14:     82.15   0.000231    1.17  0.000877  (-0.010769 -0.010871 -0.025346)
 15:    105.59   0.001803    9.11  0.005330  (-0.040349  0.055592 -0.024719)
 16:    109.40   0.000688    3.48  0.001963  (-0.004783  0.027880  0.034104)
 17:    140.82   0.000481    2.43  0.001067  (-0.012757  0.030053  0.000992)
 18:    155.51   0.001297    6.55  0.002602  ( 0.049607 -0.007770 -0.009002)
 19:    158.10   0.000189    0.96  0.000373  ( 0.011789  0.003540 -0.014891)
 20:    173.69   0.000809    4.09  0.001453  (-0.033044  0.012605 -0.014210)
 21:    186.96   0.006207   31.37  0.010361  (-0.100298  0.011138  0.013296)
 22:    204.51   0.000472    2.38  0.000720  (-0.017082 -0.007452 -0.019292)
 23:    214.27   0.000068    0.34  0.000099  (-0.001377 -0.002447 -0.009552)
 24:    230.11   0.002323   11.74  0.003151  (-0.046000  0.031862  0.004421)
 25:    248.85   0.000091    0.46  0.000114  ( 0.009519  0.003463 -0.003337)
 26:    264.75   0.001865    9.43  0.002199  ( 0.018103 -0.043166 -0.002744)
 27:    280.62   0.002953   14.92  0.003284  (-0.020538 -0.031787  0.043034)
 28:    298.52   0.000361    1.83  0.000378  (-0.015577 -0.011513  0.001576)
 29:    324.28   0.000705    3.56  0.000678  ( 0.016628  0.019846  0.002812)
 30:    339.48   0.003858   19.50  0.003547  ( 0.009664 -0.056663  0.015579)
 31:    377.70   0.004595   23.22  0.003797  (-0.045949  0.038730  0.013618)
 32:    380.68   0.001005    5.08  0.000824  ( 0.012867 -0.009119  0.023976)
 33:    399.76   0.000003    0.02  0.000003  ( 0.000973 -0.001193  0.000545)
 34:    445.65   0.002170   10.96  0.001519  (-0.021405 -0.032009  0.006052)
 35:    481.51   0.003171   16.03  0.002055  (-0.041166 -0.018223 -0.005351)
 36:    492.17   0.000578    2.92  0.000366  ( 0.012346  0.004892  0.013785)
 37:    554.72   0.003177   16.05  0.001787  ( 0.035070 -0.021661  0.009386)
 38:    582.40   0.002856   14.43  0.001530  ( 0.001620  0.026956  0.028304)
 39:    600.06   0.004666   23.58  0.002427  (-0.046801  0.007724 -0.013298)
 40:    609.96   0.001564    7.90  0.000800  (-0.027542 -0.005995 -0.002369)
 41:    628.68   0.009425   47.63  0.004678  (-0.044480  0.049969 -0.014245)
 42:    640.90   0.001886    9.53  0.000918  ( 0.003020  0.028116 -0.010893)
 43:    659.68   0.000132    0.67  0.000062  (-0.007886  0.000297  0.000458)
 44:    678.19   0.001760    8.90  0.000810  ( 0.020055  0.016587  0.011520)
 45:    701.23   0.003324   16.80  0.001479  ( 0.024328 -0.018460 -0.023382)
 46:    714.26   0.020085  101.50  0.008775  (-0.007598  0.091077 -0.020558)
 47:    733.58   0.006810   34.41  0.002897  (-0.000745 -0.052409 -0.012234)
 48:    764.50   0.006244   31.56  0.002549  (-0.048197  0.000960  0.015004)
 49:    768.90   0.013508   68.27  0.005482  (-0.048466  0.041010 -0.038100)
 50:    776.70   0.014953   75.56  0.006008  ( 0.038737 -0.064232  0.019532)
 51:    778.81   0.001425    7.20  0.000571  ( 0.021096 -0.011196  0.000840)
 52:    807.96   0.005479   27.69  0.002116  ( 0.008233  0.016215  0.042254)
 53:    840.46   0.000132    0.67  0.000049  (-0.001161 -0.006882  0.000685)
 54:    875.19   0.001590    8.04  0.000567  ( 0.010741 -0.020819  0.004277)
 55:    895.57   0.000028    0.14  0.000010  ( 0.000186  0.001734 -0.002563)
 56:    896.33   0.002894   14.63  0.001008  (-0.008092 -0.030448 -0.003879)
 57:    963.51   0.001168    5.90  0.000378  ( 0.009500  0.005849  0.015933)
 58:    970.49   0.001507    7.62  0.000485  (-0.005763  0.020286  0.006313)
 59:    982.77   0.000350    1.77  0.000111  ( 0.002717  0.009752 -0.002941)
 60:    997.15   0.000048    0.24  0.000015  ( 0.002210 -0.003037 -0.001010)
 61:   1018.37   0.000021    0.11  0.000007  (-0.000610 -0.000964 -0.002283)
 62:   1033.25   0.010004   50.56  0.003021  (-0.050653 -0.013662 -0.016401)
 63:   1041.70   0.000011    0.05  0.000003  (-0.000621  0.001483  0.000767)
 64:   1044.83   0.010428   52.70  0.003115  ( 0.027511 -0.046293 -0.014652)
 65:   1060.23   0.000150    0.76  0.000044  ( 0.002882 -0.002770 -0.005301)
 66:   1071.39   0.009283   46.91  0.002704  ( 0.038101  0.029764 -0.019138)
 67:   1083.81   0.008297   41.93  0.002389  (-0.016927 -0.007466  0.045241)
 68:   1094.71   0.012821   64.79  0.003655  (-0.052694  0.028447 -0.008299)
 69:   1108.93   0.000518    2.62  0.000146  ( 0.001127 -0.001121 -0.011969)
 70:   1113.36   0.007279   36.79  0.002040  ( 0.010249  0.025680 -0.035718)
 71:   1122.19   0.059248  299.42  0.016476  ( 0.011961 -0.114303  0.057164)
 72:   1141.65   0.026164  132.22  0.007152  (-0.032084 -0.044881  0.064095)
 73:   1168.80   0.000781    3.95  0.000209  (-0.002039 -0.007147 -0.012385)
 74:   1171.40   0.000231    1.17  0.000062  ( 0.007749 -0.001008  0.000774)
 75:   1172.04   0.000483    2.44  0.000129  ( 0.010196  0.003269 -0.003740)
 76:   1175.04   0.001967    9.94  0.000522  (-0.013589 -0.011646  0.014217)
 77:   1191.08   0.019241   97.24  0.005041  ( 0.001198  0.070056 -0.011485)
 78:   1195.87   0.007505   37.93  0.001959  (-0.004287  0.043745  0.005149)
 79:   1212.81   0.002270   11.47  0.000584  (-0.018940 -0.010879  0.010340)
 80:   1218.15   0.003632   18.36  0.000930  (-0.008613 -0.029262 -0.000196)
 81:   1223.92   0.029350  148.32  0.007483  (-0.003388 -0.081976  0.027420)
 82:   1238.08   0.006181   31.23  0.001558  ( 0.037485 -0.011834 -0.003560)
 83:   1277.90   0.065667  331.86  0.016036  (-0.109787  0.062130  0.011080)
 84:   1283.10   0.033514  169.36  0.008151  (-0.069045  0.058163 -0.000834)
 85:   1303.41   0.077954  393.95  0.018664  (-0.062411 -0.005212  0.121415)
 86:   1316.88   0.066952  338.35  0.015866  ( 0.116085  0.045778 -0.017158)
 87:   1323.87   0.011876   60.02  0.002799  ( 0.027213  0.045339  0.001790)
 88:   1341.19   0.001830    9.25  0.000426  (-0.008600 -0.001899 -0.018660)
 89:   1376.54   0.033756  170.59  0.007652  (-0.030747 -0.063690  0.051484)
 90:   1387.60   0.001802    9.11  0.000405  ( 0.005795  0.000058 -0.019278)
 91:   1403.45   0.024835  125.51  0.005522  (-0.022887  0.062784 -0.032504)
 92:   1426.49   0.006103   30.84  0.001335  ( 0.001652  0.036418  0.002460)
 93:   1465.41   0.003645   18.42  0.000776  (-0.026868 -0.001378  0.007247)
 94:   1466.31   0.006270   31.68  0.001334  ( 0.000228 -0.013029 -0.034125)
 95:   1472.59   0.006671   33.71  0.001414  (-0.004249  0.031657 -0.019835)
 96:   1473.60   0.003024   15.28  0.000640  (-0.014957  0.019646 -0.005539)
 97:   1481.13   0.015987   80.79  0.003368  ( 0.008676  0.055661  0.013961)
 98:   1483.61   0.004664   23.57  0.000981  (-0.000407 -0.012219 -0.028836)
 99:   1493.86   0.015804   79.87  0.003301  (-0.005226  0.000782 -0.057215)
100:   1498.71   0.012456   62.95  0.002594  (-0.017408  0.006093  0.047471)
101:   1528.51   0.000352    1.78  0.000072  ( 0.008385  0.000481  0.001166)
102:   1539.24   0.033544  169.52  0.006801  ( 0.021615 -0.023878 -0.075916)
103:   1648.30   0.001494    7.55  0.000283  (-0.001830 -0.003870 -0.016264)
104:   1650.02   0.005582   28.21  0.001056  (-0.022470 -0.007686  0.022176)
105:   1664.73   0.013927   70.38  0.002611  ( 0.011147 -0.016461 -0.047068)
106:   1665.90   0.011146   56.33  0.002088  (-0.045627 -0.001431  0.001996)
107:   1762.27   0.051700  261.27  0.009155  (-0.094123 -0.014617 -0.009070)
108:   1782.01   0.086857  438.94  0.015210  (-0.025477  0.011710 -0.120100)
109:   3038.58   0.011853   59.90  0.001217  (-0.024801 -0.011054  0.021909)
110:   3072.93   0.005662   28.61  0.000575  ( 0.003270  0.022893  0.006341)
111:   3090.06   0.000262    1.32  0.000026  (-0.001855 -0.003852  0.002858)
112:   3111.02   0.007616   38.49  0.000764  ( 0.015379 -0.019248  0.012529)
113:   3156.86   0.003705   18.72  0.000366  ( 0.018436 -0.000436 -0.005113)
114:   3166.78   0.003570   18.04  0.000352  (-0.001059 -0.010094 -0.015772)
115:   3179.85   0.000696    3.52  0.000068  ( 0.005923  0.005349 -0.002150)
116:   3192.28   0.002020   10.21  0.000197  (-0.002586  0.007677 -0.011480)
117:   3196.41   0.001164    5.88  0.000114  ( 0.007003  0.007895  0.001498)
118:   3201.14   0.000642    3.24  0.000063  ( 0.007315  0.000702  0.002930)
119:   3206.45   0.001021    5.16  0.000099  (-0.009873 -0.001259 -0.000563)
120:   3213.19   0.000037    0.19  0.000004  (-0.000520 -0.000788 -0.001655)
121:   3215.22   0.002565   12.96  0.000249  (-0.000431  0.007781  0.013721)
122:   3230.40   0.000141    0.71  0.000014  (-0.000139  0.000487  0.003658)
123:   3232.15   0.000385    1.94  0.000037  (-0.004037 -0.003174  0.003280)
124:   3234.58   0.000344    1.74  0.000033  (-0.005752  0.000041  0.000292)
125:   3280.81   0.000432    2.18  0.000041  (-0.004004 -0.000229  0.004999)

--------------------------
THERMOCHEMISTRY AT 298.15K
--------------------------

Temperature         ... 298.15 K
Pressure            ... 1.00 atm
Total Mass          ... 348.33 AMU

Throughout the following assumptions are being made:
  (1) The electronic state is orbitally nondegenerate
  (2) There are no thermally accessible electronically excited states
  (3) Hindered rotations indicated by low frequency modes are not
      treated as such but are treated as vibrations and this may
      cause some error
  (4) All equations used are the standard statistical mechanics
      equations for an ideal gas
  (5) All vibrations are strictly harmonic

freq.      21.78  E(vib)   ...       0.56
freq.      38.40  E(vib)   ...       0.54
freq.      44.31  E(vib)   ...       0.53
freq.      55.30  E(vib)   ...       0.52
freq.      65.52  E(vib)   ...       0.50
freq.      69.61  E(vib)   ...       0.50
freq.      80.19  E(vib)   ...       0.49
freq.      82.15  E(vib)   ...       0.48
freq.     105.59  E(vib)   ...       0.45
freq.     109.40  E(vib)   ...       0.45
freq.     140.82  E(vib)   ...       0.41
freq.     155.51  E(vib)   ...       0.40
freq.     158.10  E(vib)   ...       0.39
freq.     173.69  E(vib)   ...       0.38
freq.     186.96  E(vib)   ...       0.36
freq.     204.51  E(vib)   ...       0.35
freq.     214.27  E(vib)   ...       0.34
freq.     230.11  E(vib)   ...       0.32
freq.     248.85  E(vib)   ...       0.31
freq.     264.75  E(vib)   ...       0.29
freq.     280.62  E(vib)   ...       0.28
freq.     298.52  E(vib)   ...       0.26
freq.     324.28  E(vib)   ...       0.25
freq.     339.48  E(vib)   ...       0.23
freq.     377.70  E(vib)   ...       0.21
freq.     380.68  E(vib)   ...       0.21
freq.     399.76  E(vib)   ...       0.19
freq.     445.65  E(vib)   ...       0.17
freq.     481.51  E(vib)   ...       0.15
freq.     492.17  E(vib)   ...       0.14
freq.     554.72  E(vib)   ...       0.12
freq.     582.40  E(vib)   ...       0.11
freq.     600.06  E(vib)   ...       0.10
freq.     609.96  E(vib)   ...       0.10
freq.     628.68  E(vib)   ...       0.09
freq.     640.90  E(vib)   ...       0.09
freq.     659.68  E(vib)   ...       0.08
freq.     678.19  E(vib)   ...       0.08
freq.     701.23  E(vib)   ...       0.07
freq.     714.26  E(vib)   ...       0.07
freq.     733.58  E(vib)   ...       0.06
freq.     764.50  E(vib)   ...       0.06
freq.     768.90  E(vib)   ...       0.06
freq.     776.70  E(vib)   ...       0.05
freq.     778.81  E(vib)   ...       0.05
freq.     807.96  E(vib)   ...       0.05
freq.     840.46  E(vib)   ...       0.04
freq.     875.19  E(vib)   ...       0.04
freq.     895.57  E(vib)   ...       0.03
freq.     896.33  E(vib)   ...       0.03
freq.     963.51  E(vib)   ...       0.03
freq.     970.49  E(vib)   ...       0.03
freq.     982.77  E(vib)   ...       0.02
freq.     997.15  E(vib)   ...       0.02
freq.    1018.37  E(vib)   ...       0.02
freq.    1033.25  E(vib)   ...       0.02
freq.    1041.70  E(vib)   ...       0.02
freq.    1044.83  E(vib)   ...       0.02
freq.    1060.23  E(vib)   ...       0.02
freq.    1071.39  E(vib)   ...       0.02
freq.    1083.81  E(vib)   ...       0.02
freq.    1094.71  E(vib)   ...       0.02
freq.    1108.93  E(vib)   ...       0.02
freq.    1113.36  E(vib)   ...       0.01
freq.    1122.19  E(vib)   ...       0.01
freq.    1141.65  E(vib)   ...       0.01
freq.    1168.80  E(vib)   ...       0.01
freq.    1171.40  E(vib)   ...       0.01
freq.    1172.04  E(vib)   ...       0.01
freq.    1175.04  E(vib)   ...       0.01
freq.    1191.08  E(vib)   ...       0.01
freq.    1195.87  E(vib)   ...       0.01
freq.    1212.81  E(vib)   ...       0.01
freq.    1218.15  E(vib)   ...       0.01
freq.    1223.92  E(vib)   ...       0.01
freq.    1238.08  E(vib)   ...       0.01
freq.    1277.90  E(vib)   ...       0.01
freq.    1283.10  E(vib)   ...       0.01
freq.    1303.41  E(vib)   ...       0.01
freq.    1316.88  E(vib)   ...       0.01
freq.    1323.87  E(vib)   ...       0.01
freq.    1341.19  E(vib)   ...       0.01
freq.    1376.54  E(vib)   ...       0.01
freq.    1387.60  E(vib)   ...       0.00
freq.    1403.45  E(vib)   ...       0.00
freq.    1426.49  E(vib)   ...       0.00
freq.    1465.41  E(vib)   ...       0.00
freq.    1466.31  E(vib)   ...       0.00
freq.    1472.59  E(vib)   ...       0.00
freq.    1473.60  E(vib)   ...       0.00
freq.    1481.13  E(vib)   ...       0.00
freq.    1483.61  E(vib)   ...       0.00
freq.    1493.86  E(vib)   ...       0.00
freq.    1498.71  E(vib)   ...       0.00
freq.    1528.51  E(vib)   ...       0.00
freq.    1539.24  E(vib)   ...       0.00
freq.    1648.30  E(vib)   ...       0.00
freq.    1650.02  E(vib)   ...       0.00
freq.    1664.73  E(vib)   ...       0.00
freq.    1665.90  E(vib)   ...       0.00
freq.    1762.27  E(vib)   ...       0.00
freq.    1782.01  E(vib)   ...       0.00
freq.    3038.58  E(vib)   ...       0.00
freq.    3072.93  E(vib)   ...       0.00
freq.    3090.06  E(vib)   ...       0.00
freq.    3111.02  E(vib)   ...       0.00
freq.    3156.86  E(vib)   ...       0.00
freq.    3166.78  E(vib)   ...       0.00
freq.    3179.85  E(vib)   ...       0.00
freq.    3192.28  E(vib)   ...       0.00
freq.    3196.41  E(vib)   ...       0.00
freq.    3201.14  E(vib)   ...       0.00
freq.    3206.45  E(vib)   ...       0.00
freq.    3213.19  E(vib)   ...       0.00
freq.    3215.22  E(vib)   ...       0.00
freq.    3230.40  E(vib)   ...       0.00
freq.    3232.15  E(vib)   ...       0.00
freq.    3234.58  E(vib)   ...       0.00
freq.    3280.81  E(vib)   ...       0.00

------------
INNER ENERGY
------------

The inner energy is: U= E(el) + E(ZPE) + E(vib) + E(rot) + E(trans)
    E(el)   - is the total energy from the electronic structure calculation
              = E(kin-el) + E(nuc-el) + E(el-el) + E(nuc-nuc)
    E(ZPE)  - the the zero temperature vibrational energy from the frequency calculation
    E(vib)  - the the finite temperature correction to E(ZPE) due to population
              of excited vibrational states
    E(rot)  - is the rotational thermal energy
    E(trans)- is the translational thermal energy

Summary of contributions to the inner energy U:
Electronic energy                ...  -1242.49157779 Eh
Zero point energy                ...      0.32424974 Eh     203.47 kcal/mol
Thermal vibrational correction   ...      0.02001810 Eh      12.56 kcal/mol
Thermal rotational correction    ...      0.00141627 Eh       0.89 kcal/mol
Thermal translational correction ...      0.00141627 Eh       0.89 kcal/mol
-----------------------------------------------------------------------
Total thermal energy                  -1242.14447740 Eh

Summary of corrections to the electronic energy:

Rotational constants in cm-1:     0.009353     0.007641     0.005344

                             ****ORCA TERMINATED NORMALLY****
TOTAL RUN TIME: 0 days 2 hours 29 minutes 15 seconds 476 msec
