                         Program Version 5.0.4 -  RELEASE  -
|  1> %pal nprocs 24 end
|  2> ! PBE0 D3BJ def2-TZVP TightSCF OPTTS FREQ TightOpt
|  3> ! CPCM(dmso)
|  4> %scf
|  5> MaxIter 800
|  6> end
|  7>
|  8> %geom
|  9> MaxIter 800
| 10> MaxStep 0.15
| 11> end
| 12>
| 13> *xyz 0 1
| 14> C      -3.92989200      1.16475300      0.76512400
| 15> C      -3.69236700      1.20167500     -0.60819700
| 16> C      -2.37835400      1.28112400     -1.05332500
| 17> N      -1.35422000      1.31862900     -0.20181200
| 18> C      -1.56494700      1.28364700      1.11350200
| 19> C      -2.84877300      1.21165300      1.64250900
| 20> C       0.49229600      1.25320100     -1.05652300
| 21> C       0.93739500      2.45552700     -0.27748400
| 22> O       0.73029500      3.59215700     -0.61717100
| 23> O       1.57771500      2.09946200      0.82815000
| 24> C       2.08406600      3.15543600      1.64015000
| 25> H      -4.95097500      1.09899100      1.14818300
| 26> H      -2.13761900      1.30188300     -2.12074500
| 27> H      -0.68231600      1.31068700      1.75920200
| 28> H      -2.98951200      1.18619700      2.72429500
| 29> H      -0.01573200      1.46504000     -1.99315900
| 30> H       2.81082200      3.75490600      1.07426900
| 31> H       2.57021000      2.67440300      2.49535900
| 32> C       2.20366700     -0.50159100     -0.84841900
| 33> C       0.76042100     -0.17557800     -0.61078400
| 34> C      -0.18041500     -1.14586500     -1.29852100
| 35> C      -0.16408500     -1.28578800     -2.68533200
| 36> C      -1.05287300     -2.13940900     -3.33833100
| 37> C      -1.97015000     -2.86909600     -2.58523600
| 38> C      -2.00006600     -2.75501600     -1.19525500
| 39> C      -1.10413600     -1.89704600     -0.54681500
| 40> O      -1.05942200     -1.73461000      0.79224100
| 41> C      -2.02084800     -2.37337500      1.59963000
| 42> N       2.84914100      0.37178000     -1.63446200
| 43> O       4.02244700      0.29708100     -1.99648700
| 44> H       0.58308100     -0.23185200      0.47150200
| 45> H       0.55857900     -0.70406200     -3.26527200
| 46> H      -1.02790300     -2.23221600     -4.42613800
| 47> H      -2.67560900     -3.54226100     -3.07897000
| 48> H      -2.72106300     -3.33820900     -0.62189000
| 49> H      -3.04242200     -2.06554700      1.32210300
| 50> H      -1.81753700     -2.05842400      2.63030000
| 51> H      -1.93915000     -3.47061200      1.53246300
| 52> O       2.14064500      1.39237300     -2.03644100
| 53> H       1.26415400      3.80344900      1.97990600
| 54> H      -4.50991800      1.16490700     -1.33009200
| 55> C       2.87190000     -1.63601300     -0.33237700
| 56> H       3.91989200     -1.75439900     -0.62321800
| 57> C       2.30847600     -2.56634900      0.48279200
| 58> H       1.26786300     -2.50052100      0.80807700
| 59> C       3.08589600     -3.70477200      0.96070600
| 60> O       4.25115000     -3.94337500      0.70567800
| 61> O       2.34438600     -4.50146100      1.74820700
| 62> C       2.99005200     -5.64874700      2.27240600
| 63> H       3.84833500     -5.36629400      2.90041400
| 64> H       2.24248100     -6.17525500      2.87708500
| 65> H       3.34709200     -6.30384000      1.46365900
| 66> *
| 67>
| 68>                          ****END OF INPUT****
 Total Charge           Charge          ....    0
 Multiplicity           Mult            ....    1
 Number of Electrons    NEL             ....  218
Dispersion correction           -0.066772852
FINAL SINGLE POINT ENERGY     -1448.395149020892
Dispersion correction            ... done
Dispersion correction           -0.066770835
FINAL SINGLE POINT ENERGY     -1448.395111151570
Dispersion correction            ... done
Dispersion correction           -0.066671972
FINAL SINGLE POINT ENERGY     -1448.393839925406
Dispersion correction            ... done
FINAL SINGLE POINT ENERGY     -1448.392656676197
FINAL SINGLE POINT ENERGY     -1448.389983913745
FINAL SINGLE POINT ENERGY     -1448.386235799900
FINAL SINGLE POINT ENERGY     -1448.385702378333
FINAL SINGLE POINT ENERGY     -1448.387055826435
FINAL SINGLE POINT ENERGY     -1448.388173968286
FINAL SINGLE POINT ENERGY     -1448.389437500469
FINAL SINGLE POINT ENERGY     -1448.397335999328
FINAL SINGLE POINT ENERGY     -1448.397369564320
FINAL SINGLE POINT ENERGY     -1448.397384887850
FINAL SINGLE POINT ENERGY     -1448.397398093841
FINAL SINGLE POINT ENERGY     -1448.397401591138
FINAL SINGLE POINT ENERGY     -1448.397404438716
FINAL SINGLE POINT ENERGY     -1448.397405340662
Dispersion correction           -0.066429583
FINAL SINGLE POINT ENERGY     -1448.397405485623
Dispersion correction            ... done
Dispersion correction           -0.066429155
FINAL SINGLE POINT ENERGY     -1448.397405745179
Dispersion correction            ... done
                    ***********************HURRAY********************

CARTESIAN COORDINATES (ANGSTROEM)
---------------------------------
  C     -3.913919    1.277062    0.854933
  C     -3.703323    1.326791   -0.514736
  C     -2.403765    1.344875   -0.984980
  N     -1.361875    1.310752   -0.160310
  C     -1.551490    1.260914    1.154176
  C     -2.819791    1.247875    1.704965
  C      0.466732    1.224866   -1.053033
  C      0.926988    2.422962   -0.283445
  O      0.715957    3.557318   -0.628523
  O      1.584305    2.070335    0.810402
  C      2.100270    3.142131    1.607945
  H     -4.920432    1.259211    1.255685
  H     -2.188206    1.376340   -2.047822
  H     -0.665350    1.225265    1.778058
  H     -2.938726    1.207676    2.779882
  H     -0.053533    1.433441   -1.972370
  H      2.811565    3.729338    1.027379
  H      2.594013    2.667369    2.451177
  C      2.180384   -0.520857   -0.868073
  C      0.739513   -0.202320   -0.622424
  C     -0.189880   -1.168825   -1.326970
  C     -0.147412   -1.301634   -2.706972
  C     -1.008523   -2.157238   -3.378480
  C     -1.924639   -2.900103   -2.650432
  C     -1.980352   -2.794530   -1.267822
  C     -1.113531   -1.932239   -0.601824
  O     -1.099508   -1.779019    0.740252
  C     -2.061647   -2.474469    1.509266
  N      2.815009    0.345644   -1.651780
  O      3.994412    0.274019   -2.025234
  H      0.564075   -0.271600    0.451416
  H      0.574418   -0.716572   -3.268379
  H     -0.962061   -2.242318   -4.457385
  H     -2.605828   -3.575021   -3.156268
  H     -2.697583   -3.385745   -0.714710
  H     -3.076763   -2.195606    1.213121
  H     -1.890068   -2.177737    2.541832
  H     -1.936297   -3.556699    1.414472
  O      2.106951    1.370926   -2.052093
  H      1.286086    3.781033    1.949396
  H     -4.528406    1.348116   -1.214750
  C      2.859956   -1.636323   -0.335691
  H      3.902206   -1.747824   -0.616953
  C      2.305099   -2.550620    0.487724
  H      1.269763   -2.492613    0.799985
  C      3.089677   -3.664364    0.999202
  O      4.262700   -3.887656    0.772043
  O      2.342851   -4.455675    1.786048
  C      3.005942   -5.585541    2.346890
  H      3.837777   -5.269468    2.977966
  H      2.258015   -6.102961    2.943028
  H      3.380399   -6.241307    1.559673

 Multiplicity           Mult            ....    1
 Number of Electrons    NEL             ....  218
 Basis Dimension        Dim             .... 1062

ORBITAL ENERGIES
----------------

  NO   OCC          E(Eh)            E(eV)
   0   2.0000     -19.271863      -524.4141
   1   2.0000     -19.252593      -523.8897
   2   2.0000     -19.247665      -523.7556
   3   2.0000     -19.234747      -523.4041
   4   2.0000     -19.207601      -522.6654
   5   2.0000     -19.206606      -522.6383
   6   2.0000     -19.188064      -522.1338
   7   2.0000     -14.585004      -396.8781
   8   2.0000     -14.440837      -392.9551
   9   2.0000     -10.370614      -282.1988
  10   2.0000     -10.346631      -281.5461
  11   2.0000     -10.332358      -281.1578
  12   2.0000     -10.292965      -280.0858
  13   2.0000     -10.285063      -279.8708
  14   2.0000     -10.285016      -279.8695
  15   2.0000     -10.273513      -279.5565
  16   2.0000     -10.268466      -279.4192
  17   2.0000     -10.267665      -279.3974
  18   2.0000     -10.265990      -279.3518
  19   2.0000     -10.265334      -279.3339
  20   2.0000     -10.260007      -279.1890
  21   2.0000     -10.250644      -278.9342
  22   2.0000     -10.250448      -278.9289
  23   2.0000     -10.249663      -278.9075
  24   2.0000     -10.241948      -278.6976
  25   2.0000     -10.231701      -278.4187
  26   2.0000     -10.230810      -278.3945
  27   2.0000     -10.227884      -278.3149
  28   2.0000     -10.227400      -278.3017
  29   2.0000     -10.223072      -278.1839
  30   2.0000      -1.225381       -33.3443
  31   2.0000      -1.160949       -31.5910
  32   2.0000      -1.137758       -30.9600
  33   2.0000      -1.110735       -30.2246
  34   2.0000      -1.067239       -29.0411
  35   2.0000      -1.049609       -28.5613
  36   2.0000      -1.043821       -28.4038
  37   2.0000      -1.017841       -27.6969
  38   2.0000      -0.912279       -24.8244
  39   2.0000      -0.884954       -24.0808
  40   2.0000      -0.858595       -23.3635
  41   2.0000      -0.836823       -22.7711
  42   2.0000      -0.815647       -22.1949
  43   2.0000      -0.815106       -22.1802
  44   2.0000      -0.795977       -21.6596
  45   2.0000      -0.780250       -21.2317
  46   2.0000      -0.753245       -20.4968
  47   2.0000      -0.751631       -20.4529
  48   2.0000      -0.721277       -19.6269
  49   2.0000      -0.701316       -19.0838
  50   2.0000      -0.680596       -18.5200
  51   2.0000      -0.669628       -18.2215
  52   2.0000      -0.666673       -18.1411
  53   2.0000      -0.628681       -17.1073
  54   2.0000      -0.616543       -16.7770
  55   2.0000      -0.601419       -16.3654
  56   2.0000      -0.600198       -16.3322
  57   2.0000      -0.577056       -15.7025
  58   2.0000      -0.567483       -15.4420
  59   2.0000      -0.562187       -15.2979
  60   2.0000      -0.554799       -15.0968
  61   2.0000      -0.544227       -14.8092
  62   2.0000      -0.533363       -14.5135
  63   2.0000      -0.529092       -14.3973
  64   2.0000      -0.523577       -14.2473
  65   2.0000      -0.516637       -14.0584
  66   2.0000      -0.512944       -13.9579
  67   2.0000      -0.510792       -13.8994
  68   2.0000      -0.500322       -13.6145
  69   2.0000      -0.500183       -13.6107
  70   2.0000      -0.498640       -13.5687
  71   2.0000      -0.497290       -13.5319
  72   2.0000      -0.492556       -13.4031
  73   2.0000      -0.487581       -13.2678
  74   2.0000      -0.468416       -12.7462
  75   2.0000      -0.464453       -12.6384
  76   2.0000      -0.460542       -12.5320
  77   2.0000      -0.453471       -12.3396
  78   2.0000      -0.448766       -12.2116
  79   2.0000      -0.440684       -11.9916
  80   2.0000      -0.435144       -11.8409
  81   2.0000      -0.433388       -11.7931
  82   2.0000      -0.428265       -11.6537
  83   2.0000      -0.419779       -11.4228
  84   2.0000      -0.417707       -11.3664
  85   2.0000      -0.413884       -11.2624
  86   2.0000      -0.406460       -11.0603
  87   2.0000      -0.396838       -10.7985
  88   2.0000      -0.391419       -10.6511
  89   2.0000      -0.387550       -10.5458
  90   2.0000      -0.384606       -10.4657
  91   2.0000      -0.373111       -10.1529
  92   2.0000      -0.370636       -10.0855
  93   2.0000      -0.360381        -9.8065
  94   2.0000      -0.347997        -9.4695
  95   2.0000      -0.345879        -9.4118
  96   2.0000      -0.337762        -9.1910
  97   2.0000      -0.332716        -9.0537
  98   2.0000      -0.327502        -8.9118
  99   2.0000      -0.321397        -8.7457
 100   2.0000      -0.320975        -8.7342
 101   2.0000      -0.318355        -8.6629
 102   2.0000      -0.309127        -8.4118
 103   2.0000      -0.299591        -8.1523
 104   2.0000      -0.298019        -8.1095
 105   2.0000      -0.288161        -7.8413
 106   2.0000      -0.271851        -7.3975
 107   2.0000      -0.242340        -6.5944
 108   2.0000      -0.222430        -6.0526
 109   0.0000      -0.072353        -1.9688
 110   0.0000      -0.055401        -1.5075
 111   0.0000      -0.042278        -1.1505
 112   0.0000      -0.032459        -0.8833
 113   0.0000      -0.017702        -0.4817

MULLIKEN ATOMIC CHARGES
-----------------------
   0 C :   -0.114353
   1 C :   -0.145976
   2 C :   -0.029522
   3 N :   -0.119129
   4 C :   -0.018919
   5 C :   -0.138488
   6 C :    0.048872
   7 C :    0.347884
   8 O :   -0.381591
   9 O :   -0.212282
  10 C :   -0.274996
  11 H :    0.175996
  12 H :    0.174806
  13 H :    0.184357
  14 H :    0.176046
  15 H :    0.189180
  16 H :    0.161060
  17 H :    0.165874
  18 C :    0.029755
  19 C :    0.077414
  20 C :   -0.071873
  21 C :   -0.192866
  22 C :   -0.200208
  23 C :   -0.137777
  24 C :   -0.318609
  25 C :    0.322916
  26 O :   -0.279919
  27 C :   -0.283244
  28 N :    0.494376
  29 O :   -0.482648
  30 H :    0.150659
  31 H :    0.160273
  32 H :    0.146311
  33 H :    0.152150
  34 H :    0.165067
  35 H :    0.155730
  36 H :    0.161171
  37 H :    0.159796
  38 O :   -0.413906
  39 H :    0.158511
  40 H :    0.177056
  41 C :   -0.307956
  42 H :    0.142830
  43 C :   -0.141048
  44 H :    0.158665
  45 C :    0.312260
  46 O :   -0.439340
  47 O :   -0.241985
  48 C :   -0.254534
  49 H :    0.147840
  50 H :    0.156698
  51 H :    0.147616
Sum of atomic charges:   -0.0000000

LOEWDIN ATOMIC CHARGES
----------------------
   0 C :   -0.087245
   1 C :   -0.121568
   2 C :   -0.156493
   3 N :    0.256609
   4 C :   -0.160819
   5 C :   -0.120602
   6 C :   -0.057857
   7 C :   -0.526242
   8 O :    0.090450
   9 O :    0.281714
  10 C :   -0.294967
  11 H :    0.165050
  12 H :    0.160511
  13 H :    0.159887
  14 H :    0.165245
  15 H :    0.170224
  16 H :    0.122345
  17 H :    0.124153
  18 C :   -0.213227
  19 C :   -0.172084
  20 C :   -0.104268
  21 C :   -0.103723
  22 C :   -0.162684
  23 C :   -0.143489
  24 C :   -0.136917
  25 C :   -0.239631
  26 O :    0.254161
  27 C :   -0.328220
  28 N :    0.006820
  29 O :   -0.158309
  30 H :    0.189138
  31 H :    0.163122
  32 H :    0.152550
  33 H :    0.154972
  34 H :    0.160903
  35 H :    0.118641
  36 H :    0.122576
  37 H :    0.118993
  38 O :   -0.019419
  39 H :    0.121545
  40 H :    0.165008
  41 C :   -0.101820
  42 H :    0.166998
  43 C :   -0.154387
  44 H :    0.156973
  45 C :   -0.502394
  46 O :    0.041381
  47 O :    0.241801
  48 C :   -0.318267
  49 H :    0.116391
  50 H :    0.120057
  51 H :    0.116416

  Mayer bond orders larger than 0.100000
B(  0-C ,  1-C ) :   1.4146 B(  0-C ,  5-C ) :   1.4218 B(  0-C , 11-H ) :   0.9472
B(  1-C ,  2-C ) :   1.4373 B(  1-C , 40-H ) :   0.9522 B(  2-C ,  3-N ) :   1.3667
B(  2-C , 12-H ) :   0.9375 B(  3-N ,  4-C ) :   1.3175 B(  3-N ,  6-C ) :   0.3166
B(  4-C ,  5-C ) :   1.4407 B(  4-C , 13-H ) :   0.9321 B(  5-C , 14-H ) :   0.9514
B(  6-C ,  7-C ) :   0.9540 B(  6-C , 15-H ) :   0.9313 B(  6-C , 19-C ) :   1.0170
B(  6-C , 38-O ) :   0.3530 B(  7-C ,  8-O ) :   2.0319 B(  7-C ,  9-O ) :   1.2437
B(  9-O , 10-C ) :   0.8864 B( 10-C , 16-H ) :   0.9644 B( 10-C , 17-H ) :   0.9646
B( 10-C , 39-H ) :   0.9657 B( 18-C , 19-C ) :   0.9286 B( 18-C , 28-N ) :   1.4684
B( 18-C , 29-O ) :   0.1242 B( 18-C , 41-C ) :   1.2098 B( 19-C , 20-C ) :   0.7792
B( 19-C , 30-H ) :   0.9625 B( 20-C , 21-C ) :   1.3727 B( 20-C , 25-C ) :   1.2855
B( 21-C , 22-C ) :   1.4036 B( 21-C , 31-H ) :   0.9716 B( 22-C , 23-C ) :   1.3937
B( 22-C , 32-H ) :   0.9840 B( 23-C , 24-C ) :   1.4012 B( 23-C , 33-H ) :   0.9693
B( 24-C , 25-C ) :   1.3822 B( 24-C , 34-H ) :   0.9615 B( 25-C , 26-O ) :   1.0229
B( 26-O , 27-C ) :   0.9322 B( 27-C , 35-H ) :   0.9632 B( 27-C , 36-H ) :   0.9654
B( 27-C , 37-H ) :   0.9587 B( 28-N , 29-O ) :   1.4257 B( 28-N , 38-O ) :   1.0899
B( 41-C , 42-H ) :   0.9305 B( 41-C , 43-C ) :   1.6435 B( 43-C , 44-H ) :   0.9209
B( 43-C , 45-C ) :   1.1036 B( 45-C , 46-O ) :   1.9370 B( 45-C , 47-O ) :   1.2340
B( 47-O , 48-C ) :   0.9021 B( 48-C , 49-H ) :   0.9689 B( 48-C , 50-H ) :   0.9638
B( 48-C , 51-H ) :   0.9683

Dispersion correction           -0.066428843
FINAL SINGLE POINT ENERGY     -1448.397405919009

DIPOLE MOMENT
-------------
                                X             Y             Z
Electronic contribution:      7.00159       8.83198      -8.87757
Nuclear contribution   :    -14.16793      -8.98559      12.12802
                        -----------------------------------------
Total Dipole Moment    :     -7.16634      -0.15361       3.25045
                        -----------------------------------------
Magnitude (a.u.)       :      7.87054
Magnitude (Debye)      :     20.00533

Dispersion correction in the Hessian             ... done   (      0.8 sec)

VIBRATIONAL FREQUENCIES
-----------------------

Scaling factor for frequencies =  1.000000000  (already applied!)

   0:         0.00 cm**-1
   1:         0.00 cm**-1
   2:         0.00 cm**-1
   3:         0.00 cm**-1
   4:         0.00 cm**-1
   5:         0.00 cm**-1
   6:      -548.12 cm**-1 ***imaginary mode***
   7:        16.73 cm**-1
   8:        26.70 cm**-1
   9:        31.85 cm**-1
  10:        35.51 cm**-1
  11:        44.74 cm**-1
  12:        51.74 cm**-1
  13:        55.68 cm**-1
  14:        63.28 cm**-1
  15:        70.88 cm**-1
  16:        84.47 cm**-1
  17:        94.57 cm**-1
  18:       103.12 cm**-1
  19:       111.87 cm**-1
  20:       137.33 cm**-1
  21:       147.18 cm**-1
  22:       151.51 cm**-1
  23:       156.73 cm**-1
  24:       162.92 cm**-1
  25:       169.28 cm**-1
  26:       179.25 cm**-1
  27:       192.24 cm**-1
  28:       211.46 cm**-1
  29:       218.93 cm**-1
  30:       239.50 cm**-1
  31:       247.27 cm**-1
  32:       251.70 cm**-1
  33:       260.42 cm**-1
  34:       265.04 cm**-1
  35:       307.46 cm**-1
  36:       312.27 cm**-1
  37:       334.24 cm**-1
  38:       340.52 cm**-1
  39:       395.19 cm**-1
  40:       411.93 cm**-1
  41:       431.68 cm**-1
  42:       448.73 cm**-1
  43:       485.08 cm**-1
  44:       496.04 cm**-1
  45:       503.16 cm**-1
  46:       559.63 cm**-1
  47:       584.37 cm**-1
  48:       610.82 cm**-1
  49:       634.09 cm**-1
  50:       637.02 cm**-1
  51:       659.72 cm**-1
  52:       680.78 cm**-1
  53:       699.02 cm**-1
  54:       712.60 cm**-1
  55:       726.44 cm**-1
  56:       736.23 cm**-1
  57:       758.78 cm**-1
  58:       763.34 cm**-1
  59:       768.38 cm**-1
  60:       772.14 cm**-1
  61:       777.86 cm**-1
  62:       780.23 cm**-1
  63:       810.96 cm**-1
  64:       850.85 cm**-1
  65:       873.31 cm**-1
  66:       883.06 cm**-1
  67:       894.07 cm**-1
  68:       896.16 cm**-1
  69:       908.08 cm**-1
  70:       963.62 cm**-1
  71:       967.81 cm**-1
  72:       979.26 cm**-1
  73:       995.10 cm**-1
  74:      1013.79 cm**-1
  75:      1016.30 cm**-1
  76:      1036.84 cm**-1
  77:      1040.80 cm**-1
  78:      1060.27 cm**-1
  79:      1067.04 cm**-1
  80:      1070.78 cm**-1
  81:      1081.34 cm**-1
  82:      1084.14 cm**-1
  83:      1094.27 cm**-1
  84:      1106.51 cm**-1
  85:      1113.85 cm**-1
  86:      1126.97 cm**-1
  87:      1138.98 cm**-1
  88:      1168.47 cm**-1
  89:      1170.72 cm**-1
  90:      1171.22 cm**-1
  91:      1172.98 cm**-1
  92:      1175.27 cm**-1
  93:      1194.69 cm**-1
  94:      1201.02 cm**-1
  95:      1208.22 cm**-1
  96:      1213.07 cm**-1
  97:      1213.61 cm**-1
  98:      1222.32 cm**-1
  99:      1234.54 cm**-1
 100:      1239.46 cm**-1
 101:      1265.48 cm**-1
 102:      1287.33 cm**-1
 103:      1302.14 cm**-1
 104:      1305.85 cm**-1
 105:      1325.02 cm**-1
 106:      1338.69 cm**-1
 107:      1344.11 cm**-1
 108:      1350.72 cm**-1
 109:      1373.84 cm**-1
 110:      1388.30 cm**-1
 111:      1399.91 cm**-1
 112:      1456.46 cm**-1
 113:      1463.70 cm**-1
 114:      1466.04 cm**-1
 115:      1466.11 cm**-1
 116:      1470.71 cm**-1
 117:      1473.26 cm**-1
 118:      1473.77 cm**-1
 119:      1474.04 cm**-1
 120:      1478.50 cm**-1
 121:      1483.09 cm**-1
 122:      1493.16 cm**-1
 123:      1498.56 cm**-1
 124:      1529.02 cm**-1
 125:      1533.86 cm**-1
 126:      1539.22 cm**-1
 127:      1648.48 cm**-1
 128:      1650.31 cm**-1
 129:      1664.66 cm**-1
 130:      1666.20 cm**-1
 131:      1671.27 cm**-1
 132:      1739.42 cm**-1
 133:      1798.37 cm**-1
 134:      3038.16 cm**-1
 135:      3064.20 cm**-1
 136:      3075.54 cm**-1
 137:      3110.70 cm**-1
 138:      3114.89 cm**-1
 139:      3142.25 cm**-1
 140:      3160.53 cm**-1
 141:      3166.71 cm**-1
 142:      3179.37 cm**-1
 143:      3183.33 cm**-1
 144:      3195.58 cm**-1
 145:      3196.31 cm**-1
 146:      3197.12 cm**-1
 147:      3197.62 cm**-1
 148:      3203.76 cm**-1
 149:      3212.86 cm**-1
 150:      3214.48 cm**-1
 151:      3215.91 cm**-1
 152:      3229.97 cm**-1
 153:      3231.93 cm**-1
 154:      3234.30 cm**-1
 155:      3277.25 cm**-1

IR SPECTRUM
-----------

 Mode   freq       eps      Int      T**2         TX        TY        TZ
       cm**-1   L/(mol*cm) km/mol    a.u.
----------------------------------------------------------------------------
  7:     16.73   0.000149    0.75  0.002778  (-0.037014  0.019730 -0.031919)
  8:     26.70   0.000108    0.55  0.001263  (-0.019286  0.026788  0.013163)
  9:     31.85   0.000131    0.66  0.001280  ( 0.008070 -0.032907  0.011467)
 10:     35.51   0.000069    0.35  0.000605  (-0.016727  0.007524 -0.016395)
 11:     44.74   0.000817    4.13  0.005701  ( 0.017927  0.033961  0.065011)
 12:     51.74   0.000741    3.74  0.004470  (-0.038510  0.042010  0.034953)
 13:     55.68   0.000254    1.28  0.001422  (-0.024169 -0.028577  0.004566)
 14:     63.28   0.000853    4.31  0.004204  ( 0.050775 -0.025117 -0.031543)
 15:     70.88   0.000411    2.08  0.001810  (-0.007098  0.007039  0.041352)
 16:     84.47   0.000591    2.99  0.002182  (-0.010561 -0.039901 -0.021881)
 17:     94.57   0.000393    1.99  0.001298  (-0.035811  0.003962  0.000269)
 18:    103.12   0.001241    6.27  0.003757  (-0.035780  0.047880 -0.013579)
 19:    111.87   0.000321    1.62  0.000895  (-0.023846  0.000675  0.018064)
 20:    137.33   0.000171    0.86  0.000388  (-0.000742 -0.019602 -0.001855)
 21:    147.18   0.001188    6.00  0.002518  (-0.024876  0.028714  0.032784)
 22:    151.51   0.001541    7.79  0.003173  ( 0.046164 -0.020614 -0.024841)
 23:    156.73   0.000236    1.19  0.000470  (-0.006540 -0.010399 -0.017853)
 24:    162.92   0.001023    5.17  0.001960  ( 0.010116 -0.025503 -0.034748)
 25:    169.28   0.001050    5.31  0.001936  ( 0.027984 -0.014862 -0.030536)
 26:    179.25   0.002416   12.21  0.004206  ( 0.060020 -0.019604  0.014800)
 27:    192.24   0.003981   20.12  0.006463  ( 0.074914 -0.025324 -0.014463)
 28:    211.46   0.000636    3.21  0.000939  ( 0.004268  0.026741  0.014326)
 29:    218.93   0.000434    2.19  0.000618  ( 0.009589  0.021326  0.008445)
 30:    239.50   0.000353    1.79  0.000461  ( 0.010861  0.000757 -0.018495)
 31:    247.27   0.001779    8.99  0.002245  (-0.008535  0.046462 -0.003658)
 32:    251.70   0.000264    1.33  0.000327  (-0.006959  0.015707 -0.005664)
 33:    260.42   0.000155    0.78  0.000186  ( 0.005369 -0.012507  0.000605)
 34:    265.04   0.000781    3.94  0.000919  (-0.023277  0.012724  0.014677)
 35:    307.46   0.003157   15.95  0.003204  (-0.037197 -0.031937 -0.028295)
 36:    312.27   0.002332   11.79  0.002331  ( 0.020144 -0.012549  0.042041)
 37:    334.24   0.001756    8.88  0.001640  ( 0.032688  0.023898  0.000195)
 38:    340.52   0.007226   36.52  0.006622  ( 0.002536  0.048914 -0.064983)
 39:    395.19   0.000005    0.02  0.000004  (-0.000672 -0.001772  0.000283)
 40:    411.93   0.001945    9.83  0.001474  (-0.031674 -0.020713  0.006426)
 41:    431.68   0.000557    2.81  0.000403  ( 0.018856  0.005153  0.004529)
 42:    448.73   0.002137   10.80  0.001486  (-0.018984 -0.033555  0.000351)
 43:    485.08   0.003290   16.62  0.002116  ( 0.045935  0.000076  0.002513)
 44:    496.04   0.000508    2.57  0.000319  (-0.003499  0.015630  0.007929)
 45:    503.16   0.001902    9.61  0.001179  (-0.017911  0.027656 -0.009680)
 46:    559.63   0.001175    5.94  0.000655  (-0.012174  0.021895  0.005250)
 47:    584.37   0.002892   14.62  0.001545  ( 0.010971  0.011647  0.035898)
 48:    610.82   0.003796   19.18  0.001939  (-0.042306  0.011932 -0.002710)
 49:    634.09   0.002318   11.71  0.001141  (-0.010816 -0.031959 -0.001540)
 50:    637.02   0.010550   53.32  0.005168  ( 0.039199 -0.059207 -0.011235)
 51:    659.72   0.000150    0.76  0.000071  ( 0.005829 -0.005713  0.002088)
 52:    680.78   0.002928   14.80  0.001342  ( 0.014473  0.014058 -0.030579)
 53:    699.02   0.005738   29.00  0.002562  ( 0.015615 -0.040139  0.026587)
 54:    712.60   0.022472  113.57  0.009841  (-0.002673  0.099165  0.000599)
 55:    726.44   0.002826   14.28  0.001214  (-0.018075 -0.015139 -0.025651)
 56:    736.23   0.005881   29.72  0.002493  ( 0.008657  0.042244  0.025168)
 57:    758.78   0.005952   30.08  0.002448  (-0.039749  0.028401  0.007836)
 58:    763.34   0.000531    2.69  0.000217  ( 0.007814  0.005461 -0.011242)
 59:    768.38   0.017490   88.39  0.007103  ( 0.075253 -0.037917 -0.001545)
 60:    772.14   0.002754   13.92  0.001113  (-0.000486  0.028206 -0.017811)
 61:    777.86   0.010374   52.43  0.004162  ( 0.030025 -0.056175 -0.010235)
 62:    780.23   0.008820   44.57  0.003528  (-0.025537  0.053425 -0.004610)
 63:    810.96   0.005766   29.14  0.002219  ( 0.014675  0.004464  0.044537)
 64:    850.85   0.008455   42.73  0.003101  (-0.004866 -0.048529  0.026874)
 65:    873.31   0.003245   16.40  0.001160  ( 0.017383 -0.021578  0.019797)
 66:    883.06   0.012350   62.41  0.004365  (-0.013758 -0.039458 -0.051169)
 67:    894.07   0.000039    0.20  0.000014  (-0.001224 -0.003356  0.000863)
 68:    896.16   0.007553   38.17  0.002630  (-0.009130 -0.049608  0.009257)
 69:    908.08   0.033455  169.07  0.011497  ( 0.000954 -0.093986  0.051601)
 70:    963.62   0.000625    3.16  0.000202  (-0.010610  0.009277  0.001901)
 71:    967.81   0.003902   19.72  0.001258  ( 0.017742 -0.029404  0.008873)
 72:    979.26   0.000315    1.59  0.000101  ( 0.000205 -0.009507  0.003180)
 73:    995.10   0.000093    0.47  0.000029  (-0.002637  0.004080 -0.002357)
 74:   1013.79   0.010246   51.78  0.003154  (-0.013729 -0.032498 -0.043695)
 75:   1016.30   0.000017    0.09  0.000005  (-0.001012 -0.001881 -0.000880)
 76:   1036.84   0.016174   81.74  0.004868  (-0.056512  0.040723 -0.004006)
 77:   1040.80   0.000022    0.11  0.000007  (-0.001288  0.002174  0.000576)
 78:   1060.27   0.000208    1.05  0.000061  ( 0.000874 -0.007281  0.002716)
 79:   1067.04   0.019449   98.29  0.005688  ( 0.034442 -0.058977  0.031992)
 80:   1070.78   0.014007   70.79  0.004082  ( 0.029759  0.040266 -0.039688)
 81:   1081.34   0.025350  128.11  0.007316  (-0.049941 -0.012568 -0.068291)
 82:   1084.14   0.011218   56.69  0.003229  (-0.017984 -0.033391  0.042316)
 83:   1094.27   0.022518  113.80  0.006422  ( 0.035927 -0.071295 -0.006920)
 84:   1106.51   0.045162  228.23  0.012737  (-0.021938 -0.104023  0.037880)
 85:   1113.85   0.012863   65.00  0.003604  (-0.003009  0.058465 -0.013282)
 86:   1126.97   0.063259  319.68  0.017517  (-0.016614  0.118283 -0.057007)
 87:   1138.98   0.035369  178.74  0.009691  (-0.034483 -0.058474  0.071290)
 88:   1168.47   0.000893    4.51  0.000239  (-0.005590  0.002276 -0.014217)
 89:   1170.72   0.000159    0.81  0.000042  ( 0.001692  0.002937  0.005566)
 90:   1171.22   0.000306    1.55  0.000082  (-0.005122  0.007108 -0.002202)
 91:   1172.98   0.000433    2.19  0.000115  (-0.009671  0.001634  0.004365)
 92:   1175.27   0.001412    7.14  0.000375  ( 0.011919  0.010800 -0.010786)
 93:   1194.69   0.008993   45.45  0.002349  (-0.005941 -0.036829  0.030942)
 94:   1201.02   0.110447  558.16  0.028698  (-0.023682 -0.137552  0.096002)
 95:   1208.22   0.000558    2.82  0.000144  ( 0.007515  0.009271 -0.001328)
 96:   1213.07   0.047165  238.35  0.012133  ( 0.030870  0.081802 -0.066999)
 97:   1213.61   0.032055  161.99  0.008242  ( 0.001479 -0.075299  0.050699)
 98:   1222.32   0.123508  624.16  0.031532  ( 0.002433 -0.153781  0.088756)
 99:   1234.54   0.052950  267.59  0.013384  ( 0.035675 -0.101576  0.042357)
100:   1239.46   0.007192   36.34  0.001811  ( 0.026379  0.019115 -0.027376)
101:   1265.48   0.058287  294.56  0.014373  ( 0.005505 -0.113311  0.038776)
102:   1287.33   0.016909   85.45  0.004099  ( 0.019602 -0.047153 -0.038619)
103:   1302.14   0.067391  340.57  0.016151  (-0.040864 -0.010259  0.119898)
104:   1305.85   0.046290  233.93  0.011062  ( 0.053166  0.051616  0.074642)
105:   1325.02   0.011785   59.56  0.002776  ( 0.011660  0.015536  0.048972)
106:   1338.69   0.025461  128.67  0.005935  (-0.018904  0.067135 -0.032723)
107:   1344.11   0.125997  636.74  0.029253  ( 0.002449 -0.120511  0.121342)
108:   1350.72   0.084317  426.10  0.019480  ( 0.133644  0.013402 -0.037944)
109:   1373.84   0.025193  127.31  0.005723  ( 0.074387  0.010233  0.009188)
110:   1388.30   0.001116    5.64  0.000251  (-0.005489 -0.004615  0.014122)
111:   1399.91   0.028458  143.82  0.006344  ( 0.027022 -0.037046  0.065125)
112:   1456.46   0.017933   90.63  0.003842  (-0.033956  0.049291 -0.016119)
113:   1463.70   0.003026   15.29  0.000645  ( 0.006696  0.014143  0.020007)
114:   1466.04   0.005711   28.86  0.001216  ( 0.001480 -0.012677 -0.032445)
115:   1466.11   0.002783   14.06  0.000592  (-0.021767 -0.000656  0.010870)
116:   1470.71   0.013203   66.72  0.002801  (-0.036259 -0.016038 -0.035064)
117:   1473.26   0.032079  162.11  0.006795  ( 0.037884  0.054657 -0.048707)
118:   1473.77   0.013315   67.29  0.002819  ( 0.030625  0.013686 -0.041161)
119:   1474.04   0.004851   24.51  0.001027  (-0.004855  0.027644 -0.015464)
120:   1478.50   0.008813   44.54  0.001860  ( 0.014049  0.026602 -0.030906)
121:   1483.09   0.003699   18.69  0.000778  (-0.003270  0.000297 -0.027705)
122:   1493.16   0.013408   67.76  0.002802  ( 0.013984 -0.007259  0.050536)
123:   1498.56   0.010359   52.35  0.002157  ( 0.009707 -0.004270 -0.045218)
124:   1529.02   0.049021  247.73  0.010005  ( 0.025494  0.080560 -0.053525)
125:   1533.86   0.296816  1499.99  0.060387  (-0.036445 -0.191566  0.149537)
126:   1539.22   0.026161  132.21  0.005304  ( 0.001734  0.059008  0.042650)
127:   1648.48   0.001487    7.52  0.000282  ( 0.007497 -0.000013  0.015012)
128:   1650.31   0.004393   22.20  0.000831  ( 0.022767 -0.003002 -0.017419)
129:   1664.66   0.012001   60.65  0.002250  (-0.011450  0.016590  0.042934)
130:   1666.20   0.012475   63.04  0.002336  (-0.046418  0.006606  0.011756)
131:   1671.27   0.086438  436.82  0.016140  (-0.078331  0.085013 -0.052697)
132:   1739.42   0.112799  570.04  0.020237  (-0.138138  0.024265  0.023794)
133:   1798.37   0.107997  545.77  0.018740  (-0.025794  0.119707 -0.061197)
134:   3038.16   0.012182   61.56  0.001251  ( 0.022301  0.016592 -0.021878)
135:   3064.20   0.008919   45.07  0.000908  (-0.010136  0.024707 -0.013968)
136:   3075.54   0.005527   27.93  0.000561  ( 0.009546  0.016840  0.013643)
137:   3110.70   0.007389   37.34  0.000741  ( 0.017083 -0.020972  0.003097)
138:   3114.89   0.000822    4.15  0.000082  (-0.001796 -0.008852 -0.000865)
139:   3142.25   0.005220   26.38  0.000518  ( 0.005927  0.012513  0.018076)
140:   3160.53   0.003355   16.96  0.000331  (-0.015771  0.000630  0.009066)
141:   3166.71   0.003616   18.27  0.000356  ( 0.003794  0.005705  0.017589)
142:   3179.37   0.003495   17.66  0.000343  (-0.013757 -0.007551  0.009837)
143:   3183.33   0.000641    3.24  0.000063  (-0.005786 -0.005151  0.001683)
144:   3195.58   0.001727    8.73  0.000169  (-0.005927  0.006610 -0.009477)
145:   3196.31   0.001350    6.82  0.000132  ( 0.008147  0.007861  0.001908)
146:   3197.12   0.000663    3.35  0.000065  (-0.007798  0.001119 -0.001614)
147:   3197.62   0.000284    1.43  0.000028  ( 0.004491  0.000397 -0.002709)
148:   3203.76   0.000736    3.72  0.000072  ( 0.008011  0.000113 -0.002736)
149:   3212.86   0.000040    0.20  0.000004  ( 0.001150  0.000163 -0.001580)
150:   3214.48   0.002866   14.49  0.000278  (-0.001664 -0.003300 -0.016267)
151:   3215.91   0.001063    5.37  0.000103  ( 0.007085  0.006467 -0.003334)
152:   3229.97   0.000214    1.08  0.000021  (-0.001646  0.000418 -0.004219)
153:   3231.93   0.000420    2.12  0.000041  (-0.004454 -0.003728  0.002609)
154:   3234.30   0.000306    1.55  0.000030  (-0.005073  0.000932  0.001715)
155:   3277.25   0.000303    1.53  0.000029  (-0.003099  0.000663  0.004335)

--------------------------
THERMOCHEMISTRY AT 298.15K
--------------------------

Temperature         ... 298.15 K
Pressure            ... 1.00 atm
Total Mass          ... 414.41 AMU

Throughout the following assumptions are being made:
  (1) The electronic state is orbitally nondegenerate
  (2) There are no thermally accessible electronically excited states
  (3) Hindered rotations indicated by low frequency modes are not
      treated as such but are treated as vibrations and this may
      cause some error
  (4) All equations used are the standard statistical mechanics
      equations for an ideal gas
  (5) All vibrations are strictly harmonic

freq.      16.73  E(vib)   ...       0.57
freq.      26.70  E(vib)   ...       0.56
freq.      31.85  E(vib)   ...       0.55
freq.      35.51  E(vib)   ...       0.54
freq.      44.74  E(vib)   ...       0.53
freq.      51.74  E(vib)   ...       0.52
freq.      55.68  E(vib)   ...       0.52
freq.      63.28  E(vib)   ...       0.51
freq.      70.88  E(vib)   ...       0.50
freq.      84.47  E(vib)   ...       0.48
freq.      94.57  E(vib)   ...       0.47
freq.     103.12  E(vib)   ...       0.46
freq.     111.87  E(vib)   ...       0.45
freq.     137.33  E(vib)   ...       0.42
freq.     147.18  E(vib)   ...       0.41
freq.     151.51  E(vib)   ...       0.40
freq.     156.73  E(vib)   ...       0.40
freq.     162.92  E(vib)   ...       0.39
freq.     169.28  E(vib)   ...       0.38
freq.     179.25  E(vib)   ...       0.37
freq.     192.24  E(vib)   ...       0.36
freq.     211.46  E(vib)   ...       0.34
freq.     218.93  E(vib)   ...       0.33
freq.     239.50  E(vib)   ...       0.31
freq.     247.27  E(vib)   ...       0.31
freq.     251.70  E(vib)   ...       0.30
freq.     260.42  E(vib)   ...       0.30
freq.     265.04  E(vib)   ...       0.29
freq.     307.46  E(vib)   ...       0.26
freq.     312.27  E(vib)   ...       0.25
freq.     334.24  E(vib)   ...       0.24
freq.     340.52  E(vib)   ...       0.23
freq.     395.19  E(vib)   ...       0.20
freq.     411.93  E(vib)   ...       0.19
freq.     431.68  E(vib)   ...       0.18
freq.     448.73  E(vib)   ...       0.17
freq.     485.08  E(vib)   ...       0.15
freq.     496.04  E(vib)   ...       0.14
freq.     503.16  E(vib)   ...       0.14
freq.     559.63  E(vib)   ...       0.12
freq.     584.37  E(vib)   ...       0.11
freq.     610.82  E(vib)   ...       0.10
freq.     634.09  E(vib)   ...       0.09
freq.     637.02  E(vib)   ...       0.09
freq.     659.72  E(vib)   ...       0.08
freq.     680.78  E(vib)   ...       0.08
freq.     699.02  E(vib)   ...       0.07
freq.     712.60  E(vib)   ...       0.07
freq.     726.44  E(vib)   ...       0.06
freq.     736.23  E(vib)   ...       0.06
freq.     758.78  E(vib)   ...       0.06
freq.     763.34  E(vib)   ...       0.06
freq.     768.38  E(vib)   ...       0.06
freq.     772.14  E(vib)   ...       0.05
freq.     777.86  E(vib)   ...       0.05
freq.     780.23  E(vib)   ...       0.05
freq.     810.96  E(vib)   ...       0.05
freq.     850.85  E(vib)   ...       0.04
freq.     873.31  E(vib)   ...       0.04
freq.     883.06  E(vib)   ...       0.04
freq.     894.07  E(vib)   ...       0.03
freq.     896.16  E(vib)   ...       0.03
freq.     908.08  E(vib)   ...       0.03
freq.     963.62  E(vib)   ...       0.03
freq.     967.81  E(vib)   ...       0.03
freq.     979.26  E(vib)   ...       0.03
freq.     995.10  E(vib)   ...       0.02
freq.    1013.79  E(vib)   ...       0.02
freq.    1016.30  E(vib)   ...       0.02
freq.    1036.84  E(vib)   ...       0.02
freq.    1040.80  E(vib)   ...       0.02
freq.    1060.27  E(vib)   ...       0.02
freq.    1067.04  E(vib)   ...       0.02
freq.    1070.78  E(vib)   ...       0.02
freq.    1081.34  E(vib)   ...       0.02
freq.    1084.14  E(vib)   ...       0.02
freq.    1094.27  E(vib)   ...       0.02
freq.    1106.51  E(vib)   ...       0.02
freq.    1113.85  E(vib)   ...       0.01
freq.    1126.97  E(vib)   ...       0.01
freq.    1138.98  E(vib)   ...       0.01
freq.    1168.47  E(vib)   ...       0.01
freq.    1170.72  E(vib)   ...       0.01
freq.    1171.22  E(vib)   ...       0.01
freq.    1172.98  E(vib)   ...       0.01
freq.    1175.27  E(vib)   ...       0.01
freq.    1194.69  E(vib)   ...       0.01
freq.    1201.02  E(vib)   ...       0.01
freq.    1208.22  E(vib)   ...       0.01
freq.    1213.07  E(vib)   ...       0.01
freq.    1213.61  E(vib)   ...       0.01
freq.    1222.32  E(vib)   ...       0.01
freq.    1234.54  E(vib)   ...       0.01
freq.    1239.46  E(vib)   ...       0.01
freq.    1265.48  E(vib)   ...       0.01
freq.    1287.33  E(vib)   ...       0.01
freq.    1302.14  E(vib)   ...       0.01
freq.    1305.85  E(vib)   ...       0.01
freq.    1325.02  E(vib)   ...       0.01
freq.    1338.69  E(vib)   ...       0.01
freq.    1344.11  E(vib)   ...       0.01
freq.    1350.72  E(vib)   ...       0.01
freq.    1373.84  E(vib)   ...       0.01
freq.    1388.30  E(vib)   ...       0.00
freq.    1399.91  E(vib)   ...       0.00
freq.    1456.46  E(vib)   ...       0.00
freq.    1463.70  E(vib)   ...       0.00
freq.    1466.04  E(vib)   ...       0.00
freq.    1466.11  E(vib)   ...       0.00
freq.    1470.71  E(vib)   ...       0.00
freq.    1473.26  E(vib)   ...       0.00
freq.    1473.77  E(vib)   ...       0.00
freq.    1474.04  E(vib)   ...       0.00
freq.    1478.50  E(vib)   ...       0.00
freq.    1483.09  E(vib)   ...       0.00
freq.    1493.16  E(vib)   ...       0.00
freq.    1498.56  E(vib)   ...       0.00
freq.    1529.02  E(vib)   ...       0.00
freq.    1533.86  E(vib)   ...       0.00
freq.    1539.22  E(vib)   ...       0.00
freq.    1648.48  E(vib)   ...       0.00
freq.    1650.31  E(vib)   ...       0.00
freq.    1664.66  E(vib)   ...       0.00
freq.    1666.20  E(vib)   ...       0.00
freq.    1671.27  E(vib)   ...       0.00
freq.    1739.42  E(vib)   ...       0.00
freq.    1798.37  E(vib)   ...       0.00
freq.    3038.16  E(vib)   ...       0.00
freq.    3064.20  E(vib)   ...       0.00
freq.    3075.54  E(vib)   ...       0.00
freq.    3110.70  E(vib)   ...       0.00
freq.    3114.89  E(vib)   ...       0.00
freq.    3142.25  E(vib)   ...       0.00
freq.    3160.53  E(vib)   ...       0.00
freq.    3166.71  E(vib)   ...       0.00
freq.    3179.37  E(vib)   ...       0.00
freq.    3183.33  E(vib)   ...       0.00
freq.    3195.58  E(vib)   ...       0.00
freq.    3196.31  E(vib)   ...       0.00
freq.    3197.12  E(vib)   ...       0.00
freq.    3197.62  E(vib)   ...       0.00
freq.    3203.76  E(vib)   ...       0.00
freq.    3212.86  E(vib)   ...       0.00
freq.    3214.48  E(vib)   ...       0.00

Rotational constants in cm-1:     0.006281     0.004481     0.003635

                             ****ORCA TERMINATED NORMALLY****
TOTAL RUN TIME: 0 days 3 hours 59 minutes 58 seconds 84 msec
