                         Program Version 5.0.4 -  RELEASE  -
|  1> %pal nprocs 24 end
|  2> ! PBE0 D3BJ def2-TZVP TightSCF OPTTS FREQ TightOpt
|  3> ! CPCM(dmso)
|  4> %scf
|  5> MaxIter 800
|  6> end
|  7>
|  8> %geom
|  9> MaxIter 800
| 10> MaxStep 0.15
| 11> end
| 12>
| 13> *xyz 0 1
| 14> C      -4.31716300      1.06849800      0.40026000
| 15> C      -3.84001200      0.72937200     -0.86484700
| 16> C      -2.47066900      0.78630000     -1.09533300
| 17> N      -1.61789700      1.14839400     -0.13810900
| 18> C      -2.05704400      1.47059800      1.07806200
| 19> C      -3.41190300      1.45134600      1.38789300
| 20> C       0.32782200      1.03440800     -0.62910100
| 21> C       0.62005800      2.36268100     -0.01187600
| 22> O       0.99370600      2.49632400      1.13063800
| 23> O       0.38589800      3.35510600     -0.85248200
| 24> C       0.63683300      4.66980800     -0.36653200
| 25> H      -5.38789500      1.03363100      0.61471000
| 26> H      -2.04232500      0.52574100     -2.06798400
| 27> H      -1.30109700      1.75058500      1.81769700
| 28> H      -3.74323300      1.72531200      2.39086500
| 29> H       0.00407300      0.99376800     -1.66519700
| 30> H       0.37966300      5.35098400     -1.18476700
| 31> H       1.69613700      4.78417300     -0.09560000
| 32> C       2.06587500     -0.42667100      0.24634800
| 33> C       0.58791400     -0.23251800      0.17048700
| 34> C      -0.13358500     -1.42536500     -0.42322300
| 35> C       0.22187400     -1.90770500     -1.68180000
| 36> C      -0.45851600     -2.97491300     -2.26720000
| 37> C      -1.51152200     -3.56856600     -1.57407600
| 38> C      -1.88230700     -3.10825200     -0.31058200
| 39> C      -1.19428900     -2.03695800      0.27279700
| 40> O      -1.49120000     -1.52770600      1.48448100
| 41> C      -2.61330300     -2.01380200      2.18273700
| 42> N       2.80216800      0.29518600     -0.56703300
| 43> O       4.04577700      0.24420800     -0.65014200
| 44> H       0.21856300     -0.07247000      1.19306600
| 45> H       1.04706100     -1.42565100     -2.21471000
| 46> H      -0.16885600     -3.33775300     -3.25565200
| 47> H      -2.05847700     -4.40527500     -2.01612700
| 48> H      -2.70815100     -3.58697000      0.21646700
| 49> H      -2.49372400     -3.07631200      2.45163500
| 50> H      -3.53640600     -1.88990800      1.59282900
| 51> H      -2.69089500     -1.41588500      3.09894000
| 52> O       2.13521500      1.13626400     -1.34134900
| 53> H       0.01344900      4.88029800      0.51419700
| 54> H      -4.51364000      0.42133100     -1.66614700
| 55> N       2.58269000     -1.35338400      1.12533900
| 56> N       3.77349100     -1.62968700      1.19372300
| 57> N       4.81983100     -2.01191900      1.40453800
| 58> *
| 59>
| 60>                          ****END OF INPUT****
 Total Charge           Charge          ....    0
 Multiplicity           Mult            ....    1
 Number of Electrons    NEL             ....  194
Dispersion correction           -0.057844207
FINAL SINGLE POINT ENERGY     -1306.788562358579
Dispersion correction            ... done
Dispersion correction           -0.057851543
FINAL SINGLE POINT ENERGY     -1306.789373137946
Dispersion correction            ... done
Dispersion correction           -0.057745622
FINAL SINGLE POINT ENERGY     -1306.787681572894
Dispersion correction            ... done
FINAL SINGLE POINT ENERGY     -1306.787231806487
FINAL SINGLE POINT ENERGY     -1306.785985054784
FINAL SINGLE POINT ENERGY     -1306.785127543500
FINAL SINGLE POINT ENERGY     -1306.788479638985
FINAL SINGLE POINT ENERGY     -1306.789864269994
FINAL SINGLE POINT ENERGY     -1306.790620139076
FINAL SINGLE POINT ENERGY     -1306.790681456464
FINAL SINGLE POINT ENERGY     -1306.790715214554
FINAL SINGLE POINT ENERGY     -1306.790712819108
FINAL SINGLE POINT ENERGY     -1306.790714103652
FINAL SINGLE POINT ENERGY     -1306.790715994255
FINAL SINGLE POINT ENERGY     -1306.790719847496
FINAL SINGLE POINT ENERGY     -1306.790725036095
FINAL SINGLE POINT ENERGY     -1306.790729582928
Dispersion correction           -0.057742436
FINAL SINGLE POINT ENERGY     -1306.790731959652
Dispersion correction            ... done
Dispersion correction           -0.057743715
FINAL SINGLE POINT ENERGY     -1306.790732778458
Dispersion correction            ... done
                    ***********************HURRAY********************

CARTESIAN COORDINATES (ANGSTROEM)
---------------------------------
  C     -4.323278    1.064003    0.226103
  C     -3.800360    0.780601   -1.026787
  C     -2.430643    0.835185   -1.199967
  N     -1.612850    1.144828   -0.198679
  C     -2.101018    1.417516    1.006928
  C     -3.460437    1.392876    1.259381
  C      0.349924    1.054796   -0.624233
  C      0.599525    2.382496    0.004969
  O      0.929534    2.517361    1.158897
  O      0.381830    3.371781   -0.843963
  C      0.596592    4.692112   -0.334393
  H     -5.392959    1.027927    0.394974
  H     -1.971558    0.615656   -2.157751
  H     -1.382448    1.658812    1.782299
  H     -3.826008    1.621524    2.251977
  H      0.062681    1.009567   -1.660704
  H      0.374296    5.363469   -1.159375
  H      1.632564    4.808530   -0.015674
  C      2.069285   -0.433722    0.240286
  C      0.598920   -0.205836    0.178710
  C     -0.143523   -1.394298   -0.390787
  C      0.143167   -1.853982   -1.667229
  C     -0.558379   -2.910972   -2.228709
  C     -1.563367   -3.519383   -1.492901
  C     -1.859893   -3.087402   -0.207673
  C     -1.148000   -2.028943    0.351279
  O     -1.371064   -1.553821    1.595257
  C     -2.466268   -2.071620    2.325797
  N      2.822632    0.307068   -0.519020
  O      4.079203    0.251229   -0.580209
  H      0.249553   -0.027528    1.197292
  H      0.928550   -1.365632   -2.236189
  H     -0.323604   -3.252198   -3.229621
  H     -2.126540   -4.343970   -1.915227
  H     -2.644253   -3.576891    0.353721
  H     -2.331152   -3.134873    2.542502
  H     -3.403909   -1.925191    1.782189
  H     -2.495905   -1.511711    3.258227
  O      2.184860    1.189465   -1.277496
  H     -0.071274    4.884650    0.505397
  H     -4.437742    0.517437   -1.860840
  N      2.541290   -1.390230    1.115010
  N      3.703638   -1.778081    1.095551
  N      4.712379   -2.255960    1.228523

 Multiplicity           Mult            ....    1
 Number of Electrons    NEL             ....  194
 Basis Dimension        Dim             ....  939

ORBITAL ENERGIES
----------------

  NO   OCC          E(Eh)            E(eV)
   0   2.0000     -19.267081      -524.2839
   1   2.0000     -19.246793      -523.7319
   2   2.0000     -19.217815      -522.9433
   3   2.0000     -19.207847      -522.6721
   4   2.0000     -19.188770      -522.1530
   5   2.0000     -14.567100      -396.3909
   6   2.0000     -14.560615      -396.2145
   7   2.0000     -14.459575      -393.4650
   8   2.0000     -14.452577      -393.2746
   9   2.0000     -14.443570      -393.0295
  10   2.0000     -10.369096      -282.1574
  11   2.0000     -10.329724      -281.0861
  12   2.0000     -10.303895      -280.3832
  13   2.0000     -10.293260      -280.0938
  14   2.0000     -10.286011      -279.8966
  15   2.0000     -10.285540      -279.8838
  16   2.0000     -10.271976      -279.5147
  17   2.0000     -10.268449      -279.4187
  18   2.0000     -10.267174      -279.3840
  19   2.0000     -10.260690      -279.2076
  20   2.0000     -10.251235      -278.9503
  21   2.0000     -10.251031      -278.9447
  22   2.0000     -10.242153      -278.7031
  23   2.0000     -10.232210      -278.4326
  24   2.0000     -10.231276      -278.4072
  25   2.0000     -10.227521      -278.3050
  26   2.0000     -10.223379      -278.1923
  27   2.0000      -1.204202       -32.7680
  28   2.0000      -1.186179       -32.2776
  29   2.0000      -1.158206       -31.5164
  30   2.0000      -1.109976       -30.2040
  31   2.0000      -1.066374       -29.0175
  32   2.0000      -1.036208       -28.1967
  33   2.0000      -1.025776       -27.9128
  34   2.0000      -1.019307       -27.7367
  35   2.0000      -0.905883       -24.6503
  36   2.0000      -0.877816       -23.8866
  37   2.0000      -0.857843       -23.3431
  38   2.0000      -0.832136       -22.6436
  39   2.0000      -0.816031       -22.2053
  40   2.0000      -0.795767       -21.6539
  41   2.0000      -0.780280       -21.2325
  42   2.0000      -0.755306       -20.5529
  43   2.0000      -0.723823       -19.6962
  44   2.0000      -0.719436       -19.5768
  45   2.0000      -0.686842       -18.6899
  46   2.0000      -0.681013       -18.5313
  47   2.0000      -0.668840       -18.2001
  48   2.0000      -0.628002       -17.0888
  49   2.0000      -0.616214       -16.7680
  50   2.0000      -0.594821       -16.1859
  51   2.0000      -0.588658       -16.0182
  52   2.0000      -0.572178       -15.5697
  53   2.0000      -0.559218       -15.2171
  54   2.0000      -0.552683       -15.0393
  55   2.0000      -0.547735       -14.9046
  56   2.0000      -0.545224       -14.8363
  57   2.0000      -0.526878       -14.3371
  58   2.0000      -0.524410       -14.2699
  59   2.0000      -0.517219       -14.0742
  60   2.0000      -0.511891       -13.9293
  61   2.0000      -0.508936       -13.8489
  62   2.0000      -0.501081       -13.6351
  63   2.0000      -0.498781       -13.5725
  64   2.0000      -0.493775       -13.4363
  65   2.0000      -0.491780       -13.3820
  66   2.0000      -0.485719       -13.2171
  67   2.0000      -0.469209       -12.7678
  68   2.0000      -0.465341       -12.6626
  69   2.0000      -0.461162       -12.5489
  70   2.0000      -0.454409       -12.3651
  71   2.0000      -0.451970       -12.2987
  72   2.0000      -0.438349       -11.9281
  73   2.0000      -0.435031       -11.8378
  74   2.0000      -0.428336       -11.6556
  75   2.0000      -0.419549       -11.4165
  76   2.0000      -0.415323       -11.3015
  77   2.0000      -0.398498       -10.8437
  78   2.0000      -0.396674       -10.7941
  79   2.0000      -0.387852       -10.5540
  80   2.0000      -0.383059       -10.4236
  81   2.0000      -0.373425       -10.1614
  82   2.0000      -0.365491        -9.9455
  83   2.0000      -0.350123        -9.5273
  84   2.0000      -0.347038        -9.4434
  85   2.0000      -0.345856        -9.4112
  86   2.0000      -0.335529        -9.1302
  87   2.0000      -0.332624        -9.0512
  88   2.0000      -0.328417        -8.9367
  89   2.0000      -0.320537        -8.7223
  90   2.0000      -0.308650        -8.3988
  91   2.0000      -0.301103        -8.1934
  92   2.0000      -0.299886        -8.1603
  93   2.0000      -0.279132        -7.5956
  94   2.0000      -0.273078        -7.4308
  95   2.0000      -0.242503        -6.5988
  96   2.0000      -0.209711        -5.7065
  97   0.0000      -0.056573        -1.5394
  98   0.0000      -0.043749        -1.1905
  99   0.0000      -0.034126        -0.9286
 100   0.0000      -0.029374        -0.7993
 101   0.0000      -0.025482        -0.6934

MULLIKEN ATOMIC CHARGES
-----------------------
   0 C :   -0.108251
   1 C :   -0.151054
   2 C :   -0.022974
   3 N :   -0.111434
   4 C :   -0.012487
   5 C :   -0.141104
   6 C :    0.059057
   7 C :    0.320462
   8 O :   -0.391222
   9 O :   -0.216744
  10 C :   -0.265183
  11 H :    0.176303
  12 H :    0.177334
  13 H :    0.182438
  14 H :    0.176239
  15 H :    0.181409
  16 H :    0.165279
  17 H :    0.156610
  18 C :    0.000879
  19 C :    0.147960
  20 C :   -0.077399
  21 C :   -0.162770
  22 C :   -0.200555
  23 C :   -0.136980
  24 C :   -0.303621
  25 C :    0.271434
  26 O :   -0.266904
  27 C :   -0.281201
  28 N :    0.434419
  29 O :   -0.560513
  30 H :    0.108529
  31 H :    0.158353
  32 H :    0.146978
  33 H :    0.153051
  34 H :    0.164884
  35 H :    0.159399
  36 H :    0.152787
  37 H :    0.160192
  38 O :   -0.446876
  39 H :    0.155562
  40 H :    0.177382
  41 N :   -0.307312
  42 N :    0.409612
  43 N :   -0.231968
Sum of atomic charges:    0.0000000

LOEWDIN ATOMIC CHARGES
----------------------
   0 C :   -0.086150
   1 C :   -0.120784
   2 C :   -0.154107
   3 N :    0.262166
   4 C :   -0.157097
   5 C :   -0.119769
   6 C :   -0.062158
   7 C :   -0.527292
   8 O :    0.092946
   9 O :    0.276000
  10 C :   -0.298592
  11 H :    0.165295
  12 H :    0.161236
  13 H :    0.160449
  14 H :    0.165568
  15 H :    0.167528
  16 H :    0.123243
  17 H :    0.120487
  18 C :   -0.315008
  19 C :   -0.172788
  20 C :   -0.106785
  21 C :   -0.104544
  22 C :   -0.162742
  23 C :   -0.142948
  24 C :   -0.137011
  25 C :   -0.234679
  26 O :    0.253885
  27 C :   -0.327285
  28 N :   -0.020397
  29 O :   -0.230331
  30 H :    0.189691
  31 H :    0.163543
  32 H :    0.152602
  33 H :    0.155089
  34 H :    0.160890
  35 H :    0.118281
  36 H :    0.117710
  37 H :    0.122403
  38 O :   -0.071645
  39 H :    0.119901
  40 H :    0.165359
  41 N :    0.054803
  42 N :    0.103809
  43 N :   -0.020771

  Mayer bond orders larger than 0.100000
B(  0-C ,  1-C ) :   1.4124 B(  0-C ,  5-C ) :   1.4222 B(  0-C , 11-H ) :   0.9474
B(  1-C ,  2-C ) :   1.4388 B(  1-C , 40-H ) :   0.9525 B(  2-C ,  3-N ) :   1.3604
B(  2-C , 12-H ) :   0.9359 B(  3-N ,  4-C ) :   1.3195 B(  3-N ,  6-C ) :   0.3408
B(  4-C ,  5-C ) :   1.4390 B(  4-C , 13-H ) :   0.9321 B(  5-C , 14-H ) :   0.9520
B(  6-C ,  7-C ) :   0.9634 B(  6-C , 15-H ) :   0.9306 B(  6-C , 19-C ) :   1.0772
B(  6-C , 38-O ) :   0.3348 B(  7-C ,  8-O ) :   1.9770 B(  7-C ,  9-O ) :   1.2844
B(  7-C , 38-O ) :   0.1169 B(  9-O , 10-C ) :   0.8850 B( 10-C , 16-H ) :   0.9640
B( 10-C , 17-H ) :   0.9674 B( 10-C , 39-H ) :   0.9658 B( 18-C , 19-C ) :   1.0259
B( 18-C , 28-N ) :   1.5701 B( 18-C , 29-O ) :   0.2221 B( 18-C , 38-O ) :   0.1037
B( 18-C , 41-N ) :   1.1809 B( 19-C , 20-C ) :   0.8093 B( 19-C , 30-H ) :   0.9009
B( 20-C , 21-C ) :   1.3556 B( 20-C , 25-C ) :   1.2957 B( 21-C , 22-C ) :   1.4012
B( 21-C , 31-H ) :   0.9755 B( 22-C , 23-C ) :   1.3949 B( 22-C , 32-H ) :   0.9824
B( 23-C , 24-C ) :   1.3958 B( 23-C , 33-H ) :   0.9664 B( 24-C , 25-C ) :   1.3805
B( 24-C , 34-H ) :   0.9611 B( 25-C , 26-O ) :   1.1124 B( 26-O , 27-C ) :   0.9349
B( 27-C , 35-H ) :   0.9576 B( 27-C , 36-H ) :   0.9647 B( 27-C , 37-H ) :   0.9653
B( 28-N , 29-O ) :   1.2984 B( 28-N , 38-O ) :   1.0468 B( 41-N , 42-N ) :   1.4411
B( 41-N , 43-N ) :   0.3089 B( 42-N , 43-N ) :   1.9822

Dispersion correction           -0.057741903
FINAL SINGLE POINT ENERGY     -1306.790734076876

DIPOLE MOMENT
-------------
                                X             Y             Z
Electronic contribution:     17.64003      -2.26932       0.23839
Nuclear contribution   :    -25.67295       2.61182       0.04080
                        -----------------------------------------
Total Dipole Moment    :     -8.03292       0.34250       0.27920
                        -----------------------------------------
Magnitude (a.u.)       :      8.04507
Magnitude (Debye)      :     20.44894

Dispersion correction in the Hessian             ... done   (      0.7 sec)

VIBRATIONAL FREQUENCIES
-----------------------

Scaling factor for frequencies =  1.000000000  (already applied!)

   0:         0.00 cm**-1
   1:         0.00 cm**-1
   2:         0.00 cm**-1
   3:         0.00 cm**-1
   4:         0.00 cm**-1
   5:         0.00 cm**-1
   6:      -545.13 cm**-1 ***imaginary mode***
   7:        17.15 cm**-1
   8:        27.30 cm**-1
   9:        37.85 cm**-1
  10:        43.58 cm**-1
  11:        54.14 cm**-1
  12:        64.55 cm**-1
  13:        68.75 cm**-1
  14:        75.16 cm**-1
  15:        84.28 cm**-1
  16:       102.62 cm**-1
  17:       109.01 cm**-1
  18:       128.27 cm**-1
  19:       153.93 cm**-1
  20:       158.22 cm**-1
  21:       171.81 cm**-1
  22:       174.31 cm**-1
  23:       187.53 cm**-1
  24:       202.54 cm**-1
  25:       212.61 cm**-1
  26:       235.88 cm**-1
  27:       249.66 cm**-1
  28:       259.86 cm**-1
  29:       272.26 cm**-1
  30:       298.15 cm**-1
  31:       320.12 cm**-1
  32:       346.51 cm**-1
  33:       376.86 cm**-1
  34:       382.87 cm**-1
  35:       399.44 cm**-1
  36:       445.44 cm**-1
  37:       481.87 cm**-1
  38:       489.96 cm**-1
  39:       537.62 cm**-1
  40:       548.24 cm**-1
  41:       558.98 cm**-1
  42:       582.22 cm**-1
  43:       605.88 cm**-1
  44:       622.34 cm**-1
  45:       634.72 cm**-1
  46:       654.47 cm**-1
  47:       659.90 cm**-1
  48:       688.30 cm**-1
  49:       714.41 cm**-1
  50:       730.41 cm**-1
  51:       757.49 cm**-1
  52:       767.35 cm**-1
  53:       772.59 cm**-1
  54:       777.35 cm**-1
  55:       784.62 cm**-1
  56:       808.86 cm**-1
  57:       839.57 cm**-1
  58:       874.66 cm**-1
  59:       886.99 cm**-1
  60:       896.23 cm**-1
  61:       963.93 cm**-1
  62:       970.07 cm**-1
  63:       983.53 cm**-1
  64:       995.88 cm**-1
  65:      1019.09 cm**-1
  66:      1032.97 cm**-1
  67:      1041.70 cm**-1
  68:      1043.54 cm**-1
  69:      1060.22 cm**-1
  70:      1070.75 cm**-1
  71:      1083.18 cm**-1
  72:      1095.11 cm**-1
  73:      1100.39 cm**-1
  74:      1112.46 cm**-1
  75:      1123.29 cm**-1
  76:      1142.03 cm**-1
  77:      1169.14 cm**-1
  78:      1171.22 cm**-1
  79:      1172.07 cm**-1
  80:      1174.83 cm**-1
  81:      1191.95 cm**-1
  82:      1196.15 cm**-1
  83:      1213.47 cm**-1
  84:      1217.61 cm**-1
  85:      1225.34 cm**-1
  86:      1238.95 cm**-1
  87:      1243.69 cm**-1
  88:      1282.07 cm**-1
  89:      1302.17 cm**-1
  90:      1317.50 cm**-1
  91:      1324.75 cm**-1
  92:      1337.98 cm**-1
  93:      1344.14 cm**-1
  94:      1380.51 cm**-1
  95:      1388.66 cm**-1
  96:      1426.93 cm**-1
  97:      1454.73 cm**-1
  98:      1465.35 cm**-1
  99:      1466.15 cm**-1
 100:      1472.29 cm**-1
 101:      1473.62 cm**-1
 102:      1481.22 cm**-1
 103:      1483.54 cm**-1
 104:      1494.49 cm**-1
 105:      1498.49 cm**-1
 106:      1529.14 cm**-1
 107:      1538.54 cm**-1
 108:      1648.56 cm**-1
 109:      1649.61 cm**-1
 110:      1664.49 cm**-1
 111:      1666.25 cm**-1
 112:      1680.79 cm**-1
 113:      1780.45 cm**-1
 114:      2282.70 cm**-1
 115:      3038.48 cm**-1
 116:      3072.67 cm**-1
 117:      3106.44 cm**-1
 118:      3110.75 cm**-1
 119:      3156.57 cm**-1
 120:      3166.17 cm**-1
 121:      3180.65 cm**-1
 122:      3191.97 cm**-1
 123:      3196.00 cm**-1
 124:      3201.14 cm**-1
 125:      3205.60 cm**-1
 126:      3213.29 cm**-1
 127:      3214.65 cm**-1
 128:      3230.63 cm**-1
 129:      3231.77 cm**-1
 130:      3234.77 cm**-1
 131:      3279.05 cm**-1

IR SPECTRUM
-----------

 Mode   freq       eps      Int      T**2         TX        TY        TZ
       cm**-1   L/(mol*cm) km/mol    a.u.
----------------------------------------------------------------------------
  7:     17.15   0.000175    0.88  0.003176  (-0.004565 -0.020095 -0.052453)
  8:     27.30   0.000028    0.14  0.000325  ( 0.002889  0.016000  0.007774)
  9:     37.85   0.000348    1.76  0.002865  (-0.029072  0.038332  0.023466)
 10:     43.58   0.000126    0.64  0.000901  (-0.003322  0.029401 -0.005094)
 11:     54.14   0.000679    3.43  0.003916  (-0.057026  0.001240 -0.025743)
 12:     64.55   0.000140    0.71  0.000679  ( 0.021988 -0.013759  0.002450)
 13:     68.75   0.001012    5.11  0.004593  (-0.027571  0.043875  0.043680)
 14:     75.16   0.000219    1.11  0.000909  ( 0.020500  0.021376  0.005630)
 15:     84.28   0.001043    5.27  0.003861  (-0.032382  0.031462  0.042691)
 16:    102.62   0.001714    8.66  0.005211  ( 0.039978 -0.055432  0.023246)
 17:    109.01   0.000613    3.10  0.001754  (-0.005703  0.027359  0.031199)
 18:    128.27   0.000054    0.27  0.000130  ( 0.001609 -0.005440 -0.009912)
 19:    153.93   0.000700    3.54  0.001418  (-0.034010 -0.010490  0.012317)
 20:    158.22   0.000077    0.39  0.000151  (-0.004117 -0.005266  0.010308)
 21:    171.81   0.000148    0.75  0.000269  (-0.012931  0.003258 -0.009543)
 22:    174.31   0.002925   14.78  0.005237  ( 0.064813 -0.032148  0.001594)
 23:    187.53   0.006226   31.46  0.010360  ( 0.100411 -0.014490 -0.008249)
 24:    202.54   0.000831    4.20  0.001280  ( 0.021673  0.001243  0.028431)
 25:    212.61   0.000065    0.33  0.000096  (-0.000662 -0.005070 -0.008340)
 26:    235.88   0.003005   15.19  0.003976  ( 0.049215 -0.038746 -0.007270)
 27:    249.66   0.000239    1.21  0.000299  ( 0.015831  0.000015 -0.006975)
 28:    259.86   0.001048    5.30  0.001259  (-0.020900  0.026431  0.011111)
 29:    272.26   0.002508   12.67  0.002875  ( 0.002689  0.045101 -0.028865)
 30:    298.15   0.000262    1.32  0.000274  (-0.010291 -0.011833  0.005322)
 31:    320.12   0.000539    2.72  0.000525  ( 0.012580  0.001351  0.019111)
 32:    346.51   0.010790   54.53  0.009717  (-0.022979  0.086567 -0.041172)
 33:    376.86   0.002299   11.62  0.001904  ( 0.029787 -0.012374 -0.029381)
 34:    382.87   0.001353    6.84  0.001103  (-0.002787  0.015677  0.029141)
 35:    399.44   0.000004    0.02  0.000003  (-0.001772  0.000510 -0.000238)
 36:    445.44   0.002241   11.33  0.001570  ( 0.019882  0.033761 -0.005910)
 37:    481.87   0.001953    9.87  0.001264  (-0.033334 -0.011115 -0.005459)
 38:    489.96   0.001036    5.24  0.000660  ( 0.019327  0.011030  0.012831)
 39:    537.62   0.001626    8.22  0.000944  ( 0.008135  0.006614  0.028874)
 40:    548.24   0.002683   13.56  0.001527  ( 0.020048 -0.033215  0.004667)
 41:    558.98   0.001215    6.14  0.000678  (-0.024753  0.006489 -0.004827)
 42:    582.22   0.002519   12.73  0.001350  (-0.004179 -0.025175 -0.026432)
 43:    605.88   0.006272   31.70  0.003231  ( 0.055047 -0.007299  0.012127)
 44:    622.34   0.005840   29.51  0.002929  (-0.021178  0.046519 -0.017775)
 45:    634.72   0.003283   16.59  0.001614  ( 0.039090 -0.008942  0.002440)
 46:    654.47   0.002225   11.24  0.001061  (-0.028577  0.010578 -0.011497)
 47:    659.90   0.000012    0.06  0.000006  (-0.001498  0.000525  0.001791)
 48:    688.30   0.002934   14.83  0.001330  ( 0.002871 -0.030438 -0.019882)
 49:    714.41   0.018338   92.68  0.008010  (-0.004624  0.086365 -0.023026)
 50:    730.41   0.010298   52.04  0.004400  (-0.013629  0.064693  0.005384)
 51:    757.49   0.005309   26.83  0.002187  ( 0.024143 -0.021129  0.034028)
 52:    767.35   0.019591   99.01  0.007967  ( 0.079123 -0.035276  0.021509)
 53:    772.59   0.002906   14.69  0.001174  (-0.000120  0.025612 -0.022759)
 54:    777.35   0.013768   69.58  0.005527  (-0.038460  0.061001 -0.018072)
 55:    784.62   0.014066   71.08  0.005594  (-0.059971  0.043298 -0.011090)
 56:    808.86   0.006246   31.57  0.002410  (-0.012785 -0.010081 -0.046312)
 57:    839.57   0.003714   18.77  0.001380  ( 0.023564 -0.026435  0.011238)
 58:    874.66   0.003668   18.53  0.001309  ( 0.015659 -0.031441  0.008648)
 59:    886.99   0.005046   25.50  0.001775  ( 0.003435 -0.041786  0.004178)
 60:    896.23   0.000029    0.14  0.000010  (-0.000091  0.001932 -0.002497)
 61:    963.93   0.000848    4.28  0.000274  ( 0.009090  0.000922  0.013820)
 62:    970.07   0.001651    8.34  0.000531  ( 0.004605 -0.020626 -0.009192)
 63:    983.53   0.000313    1.58  0.000099  ( 0.002590  0.009470 -0.001722)
 64:    995.88   0.000033    0.17  0.000010  (-0.001156  0.002852  0.000888)
 65:   1019.09   0.000003    0.02  0.000001  ( 0.000206  0.000188  0.000942)
 66:   1032.97   0.010377   52.44  0.003135  ( 0.049801  0.021184  0.014359)
 67:   1041.70   0.000038    0.19  0.000011  ( 0.001409 -0.002950 -0.000743)
 68:   1043.54   0.010829   54.73  0.003238  ( 0.030511 -0.047302 -0.008370)
 69:   1060.22   0.000154    0.78  0.000045  ( 0.002499 -0.003604 -0.005095)
 70:   1070.75   0.007884   39.84  0.002298  ( 0.036437  0.029355 -0.010407)
 71:   1083.18   0.009887   49.96  0.002848  (-0.021994 -0.008505  0.047879)
 72:   1095.11   0.013403   67.73  0.003819  ( 0.049485 -0.031601  0.019288)
 73:   1100.39   0.011693   59.09  0.003316  (-0.019482 -0.030870  0.044539)
 74:   1112.46   0.006342   32.05  0.001779  ( 0.008117  0.027925 -0.030552)
 75:   1123.29   0.021386  108.08  0.005941  ( 0.018365 -0.068999  0.029034)
 76:   1142.03   0.033722  170.42  0.009215  (-0.030821 -0.056295  0.071383)
 77:   1169.14   0.000786    3.97  0.000210  ( 0.002543  0.006257  0.012809)
 78:   1171.22   0.000270    1.36  0.000072  ( 0.008359 -0.001233  0.000745)
 79:   1172.07   0.000469    2.37  0.000125  ( 0.010488  0.001625 -0.003482)
 80:   1174.83   0.002390   12.08  0.000635  ( 0.014637  0.013363 -0.015554)
 81:   1191.95   0.013477   68.11  0.003528  ( 0.007695  0.057058 -0.014612)
 82:   1196.15   0.009737   49.21  0.002540  (-0.001410  0.050331  0.002257)
 83:   1213.47   0.000820    4.15  0.000211  (-0.011968 -0.004680  0.006771)
 84:   1217.61   0.007089   35.82  0.001817  ( 0.026036  0.033338 -0.005247)
 85:   1225.34   0.004645   23.47  0.001183  ( 0.022839 -0.025502 -0.003315)
 86:   1238.95   0.009321   47.11  0.002348  ( 0.040230 -0.026883  0.002589)
 87:   1243.69   0.046184  233.40  0.011588  (-0.018147  0.099431 -0.037048)
 88:   1282.07   0.078948  398.97  0.019216  ( 0.108748 -0.085935  0.002326)
 89:   1302.17   0.069693  352.20  0.016702  ( 0.052659  0.005406 -0.117896)
 90:   1317.50   0.031841  160.91  0.007542  ( 0.083535  0.001689 -0.023683)
 91:   1324.75   0.033576  169.68  0.007909  (-0.070511 -0.053993  0.004707)
 92:   1337.98   0.012602   63.69  0.002939  (-0.035235 -0.031132  0.026991)
 93:   1344.14   0.007681   38.82  0.001783  (-0.032131 -0.027273 -0.002682)
 94:   1380.51   0.017798   89.94  0.004023  ( 0.033815  0.039967 -0.035811)
 95:   1388.66   0.002250   11.37  0.000506  ( 0.004784  0.004166 -0.021574)
 96:   1426.93   0.013558   68.52  0.002965  (-0.007801  0.053107 -0.009156)
 97:   1454.73   0.062588  316.30  0.013426  ( 0.053340 -0.088320  0.052732)
 98:   1465.35   0.003618   18.29  0.000771  (-0.026581  0.000231  0.007996)
 99:   1466.15   0.006630   33.51  0.001411  ( 0.002045  0.007551  0.036742)
100:   1472.29   0.006290   31.79  0.001333  (-0.003854  0.030068 -0.020356)
101:   1473.62   0.003109   15.71  0.000658  (-0.015520  0.019983 -0.004273)
102:   1481.22   0.015784   79.77  0.003325  (-0.010260 -0.055382 -0.012371)
103:   1483.54   0.004600   23.24  0.000968  ( 0.001626 -0.012114 -0.028604)
104:   1494.49   0.016837   85.09  0.003516  ( 0.006298  0.000691  0.058955)
105:   1498.49   0.011650   58.88  0.002426  (-0.017930  0.005139  0.045589)
106:   1529.14   0.000366    1.85  0.000075  ( 0.008518  0.001384  0.000551)
107:   1538.54   0.033214  167.85  0.006737  (-0.025617  0.023552  0.074336)
108:   1648.56   0.001325    6.70  0.000251  (-0.005160 -0.005889 -0.013766)
109:   1649.61   0.007569   38.25  0.001432  (-0.024044 -0.013183  0.026076)
110:   1664.49   0.013409   67.76  0.002514  ( 0.011275 -0.013463 -0.046964)
111:   1666.25   0.011321   57.21  0.002120  ( 0.045788 -0.001595 -0.004597)
112:   1680.79   0.046808  236.55  0.008691  ( 0.037393  0.078570 -0.033451)
113:   1780.45   0.086497  437.12  0.015160  ( 0.033354 -0.005637  0.118390)
114:   2282.70   0.335791  1696.95  0.045905  (-0.175243  0.111872 -0.051766)
115:   3038.48   0.012073   61.01  0.001240  ( 0.025691  0.011617 -0.021094)
116:   3072.67   0.005797   29.30  0.000589  (-0.003261 -0.023438 -0.005366)
117:   3106.44   0.000367    1.86  0.000037  ( 0.001695  0.005634 -0.001516)
118:   3110.75   0.007670   38.76  0.000769  (-0.015525  0.019140 -0.012731)
119:   3156.57   0.003722   18.81  0.000368  (-0.018360  0.000619  0.005523)
120:   3166.17   0.003639   18.39  0.000359  (-0.000434 -0.010335 -0.015863)
121:   3180.65   0.000716    3.62  0.000070  (-0.006109 -0.005364  0.002029)
122:   3191.97   0.002073   10.47  0.000203  ( 0.003011 -0.007477  0.011733)
123:   3196.00   0.001226    6.20  0.000120  (-0.007051 -0.008218 -0.001561)
124:   3201.14   0.000664    3.36  0.000065  ( 0.007519  0.000171  0.002857)
125:   3205.60   0.001104    5.58  0.000107  (-0.010231 -0.001367 -0.000945)
126:   3213.29   0.000040    0.20  0.000004  ( 0.000109  0.000651  0.001864)
127:   3214.65   0.002711   13.70  0.000263  (-0.001046  0.007605  0.014293)
128:   3230.63   0.000128    0.65  0.000012  ( 0.000049 -0.000481 -0.003486)
129:   3231.77   0.000425    2.15  0.000041  (-0.004535 -0.003357  0.003029)
130:   3234.77   0.000348    1.76  0.000034  (-0.005787  0.000289  0.000093)
131:   3279.05   0.000341    1.72  0.000032  (-0.003901  0.000262  0.004139)

--------------------------
THERMOCHEMISTRY AT 298.15K
--------------------------

Temperature         ... 298.15 K
Pressure            ... 1.00 atm
Total Mass          ... 371.35 AMU

Throughout the following assumptions are being made:
  (1) The electronic state is orbitally nondegenerate
  (2) There are no thermally accessible electronically excited states
  (3) Hindered rotations indicated by low frequency modes are not
      treated as such but are treated as vibrations and this may
      cause some error
  (4) All equations used are the standard statistical mechanics
      equations for an ideal gas
  (5) All vibrations are strictly harmonic

freq.      17.15  E(vib)   ...       0.57
freq.      27.30  E(vib)   ...       0.55
freq.      37.85  E(vib)   ...       0.54
freq.      43.58  E(vib)   ...       0.53
freq.      54.14  E(vib)   ...       0.52
freq.      64.55  E(vib)   ...       0.50
freq.      68.75  E(vib)   ...       0.50
freq.      75.16  E(vib)   ...       0.49
freq.      84.28  E(vib)   ...       0.48
freq.     102.62  E(vib)   ...       0.46
freq.     109.01  E(vib)   ...       0.45
freq.     128.27  E(vib)   ...       0.43
freq.     153.93  E(vib)   ...       0.40
freq.     158.22  E(vib)   ...       0.39
freq.     171.81  E(vib)   ...       0.38
freq.     174.31  E(vib)   ...       0.38
freq.     187.53  E(vib)   ...       0.36
freq.     202.54  E(vib)   ...       0.35
freq.     212.61  E(vib)   ...       0.34
freq.     235.88  E(vib)   ...       0.32
freq.     249.66  E(vib)   ...       0.31
freq.     259.86  E(vib)   ...       0.30
freq.     272.26  E(vib)   ...       0.29
freq.     298.15  E(vib)   ...       0.27
freq.     320.12  E(vib)   ...       0.25
freq.     346.51  E(vib)   ...       0.23
freq.     376.86  E(vib)   ...       0.21
freq.     382.87  E(vib)   ...       0.20
freq.     399.44  E(vib)   ...       0.19
freq.     445.44  E(vib)   ...       0.17
freq.     481.87  E(vib)   ...       0.15
freq.     489.96  E(vib)   ...       0.15
freq.     537.62  E(vib)   ...       0.12
freq.     548.24  E(vib)   ...       0.12
freq.     558.98  E(vib)   ...       0.12
freq.     582.22  E(vib)   ...       0.11
freq.     605.88  E(vib)   ...       0.10
freq.     622.34  E(vib)   ...       0.09
freq.     634.72  E(vib)   ...       0.09
freq.     654.47  E(vib)   ...       0.08
freq.     659.90  E(vib)   ...       0.08
freq.     688.30  E(vib)   ...       0.07
freq.     714.41  E(vib)   ...       0.07
freq.     730.41  E(vib)   ...       0.06
freq.     757.49  E(vib)   ...       0.06
freq.     767.35  E(vib)   ...       0.06
freq.     772.59  E(vib)   ...       0.05
freq.     777.35  E(vib)   ...       0.05
freq.     784.62  E(vib)   ...       0.05
freq.     808.86  E(vib)   ...       0.05
freq.     839.57  E(vib)   ...       0.04
freq.     874.66  E(vib)   ...       0.04
freq.     886.99  E(vib)   ...       0.04
freq.     896.23  E(vib)   ...       0.03
freq.     963.93  E(vib)   ...       0.03
freq.     970.07  E(vib)   ...       0.03
freq.     983.53  E(vib)   ...       0.02
freq.     995.88  E(vib)   ...       0.02
freq.    1019.09  E(vib)   ...       0.02
freq.    1032.97  E(vib)   ...       0.02
freq.    1041.70  E(vib)   ...       0.02
freq.    1043.54  E(vib)   ...       0.02
freq.    1060.22  E(vib)   ...       0.02
freq.    1070.75  E(vib)   ...       0.02
freq.    1083.18  E(vib)   ...       0.02
freq.    1095.11  E(vib)   ...       0.02
freq.    1100.39  E(vib)   ...       0.02
freq.    1112.46  E(vib)   ...       0.01
freq.    1123.29  E(vib)   ...       0.01
freq.    1142.03  E(vib)   ...       0.01
freq.    1169.14  E(vib)   ...       0.01
freq.    1171.22  E(vib)   ...       0.01
freq.    1172.07  E(vib)   ...       0.01
freq.    1174.83  E(vib)   ...       0.01
freq.    1191.95  E(vib)   ...       0.01
freq.    1196.15  E(vib)   ...       0.01
freq.    1213.47  E(vib)   ...       0.01
freq.    1217.61  E(vib)   ...       0.01
freq.    1225.34  E(vib)   ...       0.01
freq.    1238.95  E(vib)   ...       0.01
freq.    1243.69  E(vib)   ...       0.01
freq.    1282.07  E(vib)   ...       0.01
freq.    1302.17  E(vib)   ...       0.01
freq.    1317.50  E(vib)   ...       0.01
freq.    1324.75  E(vib)   ...       0.01
freq.    1337.98  E(vib)   ...       0.01
freq.    1344.14  E(vib)   ...       0.01
freq.    1380.51  E(vib)   ...       0.01
freq.    1388.66  E(vib)   ...       0.00
freq.    1426.93  E(vib)   ...       0.00
freq.    1454.73  E(vib)   ...       0.00
freq.    1465.35  E(vib)   ...       0.00
freq.    1466.15  E(vib)   ...       0.00
freq.    1472.29  E(vib)   ...       0.00
freq.    1473.62  E(vib)   ...       0.00
freq.    1481.22  E(vib)   ...       0.00
freq.    1483.54  E(vib)   ...       0.00
freq.    1494.49  E(vib)   ...       0.00
freq.    1498.49  E(vib)   ...       0.00
freq.    1529.14  E(vib)   ...       0.00
freq.    1538.54  E(vib)   ...       0.00
freq.    1648.56  E(vib)   ...       0.00
freq.    1649.61  E(vib)   ...       0.00
freq.    1664.49  E(vib)   ...       0.00
freq.    1666.25  E(vib)   ...       0.00
freq.    1680.79  E(vib)   ...       0.00
freq.    1780.45  E(vib)   ...       0.00
freq.    2282.70  E(vib)   ...       0.00
freq.    3038.48  E(vib)   ...       0.00
freq.    3072.67  E(vib)   ...       0.00
freq.    3106.44  E(vib)   ...       0.00
freq.    3110.75  E(vib)   ...       0.00
freq.    3156.57  E(vib)   ...       0.00
freq.    3166.17  E(vib)   ...       0.00
freq.    3180.65  E(vib)   ...       0.00
freq.    3191.97  E(vib)   ...       0.00
freq.    3196.00  E(vib)   ...       0.00
freq.    3201.14  E(vib)   ...       0.00
freq.    3205.60  E(vib)   ...       0.00
freq.    3213.29  E(vib)   ...       0.00
freq.    3214.65  E(vib)   ...       0.00
freq.    3230.63  E(vib)   ...       0.00
freq.    3231.77  E(vib)   ...       0.00
freq.    3234.77  E(vib)   ...       0.00
freq.    3279.05  E(vib)   ...       0.00

------------
INNER ENERGY
------------

The inner energy is: U= E(el) + E(ZPE) + E(vib) + E(rot) + E(trans)
    E(el)   - is the total energy from the electronic structure calculation
              = E(kin-el) + E(nuc-el) + E(el-el) + E(nuc-nuc)
    E(ZPE)  - the the zero temperature vibrational energy from the frequency calculation
    E(vib)  - the the finite temperature correction to E(ZPE) due to population
              of excited vibrational states
    E(rot)  - is the rotational thermal energy
    E(trans)- is the translational thermal energy

Summary of contributions to the inner energy U:
Electronic energy                ...  -1306.79073408 Eh
Zero point energy                ...      0.33546924 Eh     210.51 kcal/mol
Thermal vibrational correction   ...      0.02192617 Eh      13.76 kcal/mol
Thermal rotational correction    ...      0.00141627 Eh       0.89 kcal/mol

Rotational constants in cm-1:     0.008070     0.006428     0.004502

                             ****ORCA TERMINATED NORMALLY****
TOTAL RUN TIME: 0 days 2 hours 27 minutes 12 seconds 557 msec
