                         Program Version 5.0.4 -  RELEASE  -
|  1> %pal nprocs 24 end
|  2> ! PBE0 D3BJ def2-TZVP TightSCF OPTTS FREQ TightOpt
|  3> ! CPCM(dmso)
|  4> %scf
|  5> MaxIter 800
|  6> end
|  7>
|  8> %geom
|  9> MaxIter 800
| 10> MaxStep 0.15
| 11> end
| 12>
| 13> *xyz 0 1
| 14> C      -1.81288800     -3.43250300      0.25968900
| 15> C      -1.67128400     -2.80460100      1.49593900
| 16> C      -0.69875200     -1.82099100      1.63381400
| 17> N       0.08553900     -1.46979500      0.61663900
| 18> C      -0.04093100     -2.05646900     -0.57285000
| 19> C      -0.98046600     -3.05673400     -0.79266800
| 20> C       1.32490200      0.09688500      0.97171000
| 21> C       2.47010100     -0.63788100      0.35057000
| 22> O       2.76324100     -0.54746200     -0.81848800
| 23> O       3.09424000     -1.40015300      1.23022700
| 24> C       4.21053300     -2.14171900      0.74747400
| 25> H      -2.56808300     -4.20910400      0.11731900
| 26> H      -0.54859600     -1.29485600      2.58147900
| 27> H       0.63193700     -1.71458600     -1.36489300
| 28> H      -1.05679900     -3.52343500     -1.77604700
| 29> H       1.11234000     -0.06580500      2.02480800
| 30> H       4.59022700     -2.71069700      1.60270100
| 31> H       4.98675100     -1.46246200      0.36735700
| 32> C       1.38280900      2.29069600     -0.10960900
| 33> C       0.52320400      1.08648800      0.14386300
| 34> C      -0.78845000      1.42571500      0.82524400
| 35> C      -0.79403600      2.13648700      2.02456800
| 36> C      -1.98310200      2.42799500      2.69302900
| 37> C      -3.18990400      2.00091000      2.14403000
| 38> C      -3.21255200      1.29217900      0.94252900
| 39> C      -2.01495300      1.00123500      0.27717100
| 40> O      -1.95488500      0.31400300     -0.88026200
| 41> C      -3.13566800     -0.22022000     -1.42873700
| 42> N       2.43778500      2.41021300      0.70288100
| 43> O       3.25771100      3.31837900      0.73022800
| 44> H       0.16204300      2.46046800      2.44610200
| 45> H      -1.96452800      2.98339300      3.63319300
| 46> H      -4.13351500      2.21879200      2.65085600
| 47> H      -4.16703800      0.96738500      0.52733500
| 48> H      -3.84745400      0.57368100     -1.70944000
| 49> H      -3.62610900     -0.91544700     -0.72732900
| 50> H      -2.83762000     -0.77173900     -2.32873400
| 51> O       2.58702200      1.42478400      1.55131500
| 52> H       3.90039600     -2.82353900     -0.05703900
| 53> H      -2.30408900     -3.06642000      2.34551200
| 54> C       1.08561100      3.28185800     -1.12384100
| 55> O       1.69086100      4.30449200     -1.37016100
| 56> O      -0.01140400      2.90549400     -1.80785000
| 57> C      -0.44504200      3.77740900     -2.83618500
| 58> H      -1.34764900      3.32309200     -3.26117500
| 59> H      -0.67896400      4.77457000     -2.43485200
| 60> H       0.32506000      3.88230600     -3.61492400
| 61> H       0.30101000      0.62400200     -0.82522200
| 62> *
| 63>
| 64>                          ****END OF INPUT****
 Total Charge           Charge          ....    0
 Multiplicity           Mult            ....    1
 Number of Electrons    NEL             ....  204
Dispersion correction           -0.061698359
FINAL SINGLE POINT ENERGY     -1371.045198637257
Dispersion correction            ... done
Dispersion correction           -0.061657552
FINAL SINGLE POINT ENERGY     -1371.045232194074
Dispersion correction            ... done
Dispersion correction           -0.061853800
FINAL SINGLE POINT ENERGY     -1371.043703459145
Dispersion correction            ... done
FINAL SINGLE POINT ENERGY     -1371.044537768182
FINAL SINGLE POINT ENERGY     -1371.045589627590
FINAL SINGLE POINT ENERGY     -1371.045612535178
FINAL SINGLE POINT ENERGY     -1371.046862241898
FINAL SINGLE POINT ENERGY     -1371.046784757515
FINAL SINGLE POINT ENERGY     -1371.047035713531
FINAL SINGLE POINT ENERGY     -1371.047081542789
FINAL SINGLE POINT ENERGY     -1371.047160198813
FINAL SINGLE POINT ENERGY     -1371.047163128295
FINAL SINGLE POINT ENERGY     -1371.047156689119
FINAL SINGLE POINT ENERGY     -1371.047160575770
FINAL SINGLE POINT ENERGY     -1371.047160434187
FINAL SINGLE POINT ENERGY     -1371.047164956447
FINAL SINGLE POINT ENERGY     -1371.047167296833
Dispersion correction           -0.061469831
FINAL SINGLE POINT ENERGY     -1371.047166616200
Dispersion correction            ... done
Dispersion correction           -0.061468811
FINAL SINGLE POINT ENERGY     -1371.047166039050
Dispersion correction            ... done
                    ***********************HURRAY********************

CARTESIAN COORDINATES (ANGSTROEM)
---------------------------------
  C     -1.736176   -3.510383    0.281463
  C     -1.615748   -2.866174    1.503209
  C     -0.689699   -1.846948    1.626245
  N      0.072928   -1.471093    0.605375
  C     -0.038287   -2.075924   -0.572495
  C     -0.931520   -3.111461   -0.774310
  C      1.301885    0.101656    0.961909
  C      2.446255   -0.633953    0.348084
  O      2.758103   -0.528480   -0.813102
  O      3.047909   -1.412031    1.230222
  C      4.175688   -2.150913    0.748353
  H     -2.451607   -4.313927    0.153077
  H     -0.557407   -1.312661    2.560918
  H      0.606160   -1.717735   -1.367697
  H     -0.993215   -3.586025   -1.744946
  H      1.083742   -0.057106    2.004491
  H      4.533995   -2.724250    1.598886
  H      4.948189   -1.467637    0.395255
  C      1.370616    2.300032   -0.104587
  C      0.509990    1.095999    0.138095
  C     -0.799588    1.436075    0.819011
  C     -0.801188    2.141350    2.013395
  C     -1.980834    2.433585    2.683160
  C     -3.184585    2.013907    2.139980
  C     -3.212451    1.314971    0.941045
  C     -2.023842    1.023825    0.275576
  O     -1.973119    0.346218   -0.890478
  C     -3.176677   -0.171171   -1.421663
  N      2.427502    2.405108    0.692114
  O      3.263389    3.309039    0.718406
  H      0.147230    2.463781    2.431443
  H     -1.957217    2.982261    3.616958
  H     -4.118401    2.231203    2.646282
  H     -4.161480    0.998309    0.529773
  H     -3.872295    0.631038   -1.684049
  H     -3.657464   -0.854258   -0.715649
  H     -2.897104   -0.717129   -2.320365
  O      2.580187    1.417506    1.539818
  H      3.872870   -2.815514   -0.060821
  H     -2.226517   -3.143297    2.352537
  C      1.085710    3.285068   -1.126062
  O      1.708192    4.295047   -1.378250
  O     -0.015656    2.921686   -1.804890
  C     -0.427684    3.806491   -2.842233
  H     -1.322995    3.361098   -3.269504
  H     -0.653087    4.794119   -2.437888
  H      0.349223    3.896323   -3.602454
  H      0.294641    0.638666   -0.826359

 Multiplicity           Mult            ....    1
 Number of Electrons    NEL             ....  204
 Basis Dimension        Dim             ....  988

ORBITAL ENERGIES
----------------

  NO   OCC          E(Eh)            E(eV)
   0   2.0000     -19.268403      -524.3199
   1   2.0000     -19.252970      -523.8999
   2   2.0000     -19.244414      -523.6671
   3   2.0000     -19.232874      -523.3531
   4   2.0000     -19.209692      -522.7223
   5   2.0000     -19.209507      -522.7173
   6   2.0000     -19.189242      -522.1658
   7   2.0000     -14.591546      -397.0562
   8   2.0000     -14.441117      -392.9628
   9   2.0000     -10.370036      -282.1830
  10   2.0000     -10.353203      -281.7250
  11   2.0000     -10.330325      -281.1024
  12   2.0000     -10.291130      -280.0359
  13   2.0000     -10.285176      -279.8739
  14   2.0000     -10.284134      -279.8455
  15   2.0000     -10.272477      -279.5283
  16   2.0000     -10.267755      -279.3998
  17   2.0000     -10.266294      -279.3601
  18   2.0000     -10.266152      -279.3562
  19   2.0000     -10.264574      -279.3133
  20   2.0000     -10.259926      -279.1868
  21   2.0000     -10.250680      -278.9352
  22   2.0000     -10.250232      -278.9230
  23   2.0000     -10.239730      -278.6372
  24   2.0000     -10.230030      -278.3733
  25   2.0000     -10.229482      -278.3584
  26   2.0000     -10.225733      -278.2563
  27   2.0000     -10.221564      -278.1429
  28   2.0000      -1.230326       -33.4789
  29   2.0000      -1.159869       -31.5616
  30   2.0000      -1.140405       -31.0320
  31   2.0000      -1.108042       -30.1514
  32   2.0000      -1.068190       -29.0669
  33   2.0000      -1.052827       -28.6489
  34   2.0000      -1.044633       -28.4259
  35   2.0000      -1.018014       -27.7016
  36   2.0000      -0.905825       -24.6488
  37   2.0000      -0.879295       -23.9268
  38   2.0000      -0.857679       -23.3386
  39   2.0000      -0.833219       -22.6730
  40   2.0000      -0.814984       -22.1768
  41   2.0000      -0.794791       -21.6274
  42   2.0000      -0.778488       -21.1837
  43   2.0000      -0.764141       -20.7933
  44   2.0000      -0.753951       -20.5160
  45   2.0000      -0.719497       -19.5785
  46   2.0000      -0.692121       -18.8336
  47   2.0000      -0.681123       -18.5343
  48   2.0000      -0.668258       -18.1842
  49   2.0000      -0.652630       -17.7590
  50   2.0000      -0.625495       -17.0206
  51   2.0000      -0.614288       -16.7156
  52   2.0000      -0.596594       -16.2342
  53   2.0000      -0.593332       -16.1454
  54   2.0000      -0.573112       -15.5952
  55   2.0000      -0.567032       -15.4297
  56   2.0000      -0.554684       -15.0937
  57   2.0000      -0.545380       -14.8405
  58   2.0000      -0.540112       -14.6972
  59   2.0000      -0.527390       -14.3510
  60   2.0000      -0.520282       -14.1576
  61   2.0000      -0.516439       -14.0530
  62   2.0000      -0.515226       -14.0200
  63   2.0000      -0.504718       -13.7341
  64   2.0000      -0.499639       -13.5959
  65   2.0000      -0.498310       -13.5597
  66   2.0000      -0.497523       -13.5383
  67   2.0000      -0.493999       -13.4424
  68   2.0000      -0.490219       -13.3395
  69   2.0000      -0.471274       -12.8240
  70   2.0000      -0.465164       -12.6578
  71   2.0000      -0.460293       -12.5252
  72   2.0000      -0.455744       -12.4014
  73   2.0000      -0.451823       -12.2947
  74   2.0000      -0.446039       -12.1373
  75   2.0000      -0.434478       -11.8227
  76   2.0000      -0.432623       -11.7723
  77   2.0000      -0.427833       -11.6419
  78   2.0000      -0.419114       -11.4047
  79   2.0000      -0.415769       -11.3137
  80   2.0000      -0.409315       -11.1380
  81   2.0000      -0.397403       -10.8139
  82   2.0000      -0.395557       -10.7636
  83   2.0000      -0.385455       -10.4888
  84   2.0000      -0.382712       -10.4141
  85   2.0000      -0.378018       -10.2864
  86   2.0000      -0.371065       -10.0972
  87   2.0000      -0.360403        -9.8071
  88   2.0000      -0.345035        -9.3889
  89   2.0000      -0.342607        -9.3228
  90   2.0000      -0.337676        -9.1886
  91   2.0000      -0.330702        -8.9989
  92   2.0000      -0.325937        -8.8692
  93   2.0000      -0.324668        -8.8347
  94   2.0000      -0.320218        -8.7136
  95   2.0000      -0.310678        -8.4540
  96   2.0000      -0.299825        -8.1586
  97   2.0000      -0.298682        -8.1275
  98   2.0000      -0.281067        -7.6482
  99   2.0000      -0.272934        -7.4269
 100   2.0000      -0.243835        -6.6351
 101   2.0000      -0.237781        -6.4703
 102   0.0000      -0.056893        -1.5481
 103   0.0000      -0.053811        -1.4643
 104   0.0000      -0.037137        -1.0106
 105   0.0000      -0.031366        -0.8535
 106   0.0000      -0.014167        -0.3855

MULLIKEN ATOMIC CHARGES
-----------------------
   0 C :   -0.110576
   1 C :   -0.148316
   2 C :   -0.028759
   3 N :   -0.121757
   4 C :   -0.010915
   5 C :   -0.142696
   6 C :    0.108692
   7 C :    0.320062
   8 O :   -0.384641
   9 O :   -0.215088
  10 C :   -0.266083
  11 H :    0.175689
  12 H :    0.178084
  13 H :    0.181004
  14 H :    0.175939
  15 H :    0.177279
  16 H :    0.165915
  17 H :    0.157470
  18 C :   -0.083159
  19 C :    0.178171
  20 C :   -0.136150
  21 C :   -0.170181
  22 C :   -0.203692
  23 C :   -0.142208
  24 C :   -0.306564
  25 C :    0.284039
  26 O :   -0.267863
  27 C :   -0.282734
  28 N :    0.462734
  29 O :   -0.448057
  30 H :    0.160021
  31 H :    0.145707
  32 H :    0.151614
  33 H :    0.163548
  34 H :    0.158817
  35 H :    0.151540
  36 H :    0.159966
  37 O :   -0.410014
  38 H :    0.156399
  39 H :    0.176972
  40 C :    0.227855
  41 O :   -0.409649
  42 O :   -0.225369
  43 C :   -0.276572
  44 H :    0.157813
  45 H :    0.148632
  46 H :    0.149038
  47 H :    0.118045
Sum of atomic charges:   -0.0000000

LOEWDIN ATOMIC CHARGES
----------------------
   0 C :   -0.086854
   1 C :   -0.121374
   2 C :   -0.156563
   3 N :    0.258441
   4 C :   -0.160116
   5 C :   -0.120790
   6 C :   -0.066514
   7 C :   -0.525534
   8 O :    0.097606
   9 O :    0.277441
  10 C :   -0.297364
  11 H :    0.165040
  12 H :    0.160891
  13 H :    0.160187
  14 H :    0.165149
  15 H :    0.168112
  16 H :    0.123493
  17 H :    0.120871
  18 C :   -0.193843
  19 C :   -0.174581
  20 C :   -0.104650
  21 C :   -0.105846
  22 C :   -0.165398
  23 C :   -0.146159
  24 C :   -0.139415
  25 C :   -0.236967
  26 O :    0.257413
  27 C :   -0.329514
  28 N :    0.008040
  29 O :   -0.132680
  30 H :    0.162334
  31 H :    0.151936
  32 H :    0.154388
  33 H :    0.160327
  34 H :    0.117949
  35 H :    0.117573
  36 H :    0.121876
  37 O :   -0.021705
  38 H :    0.120210
  39 H :    0.165020
  40 C :   -0.489682
  41 O :    0.055015
  42 O :    0.258190
  43 C :   -0.315638
  44 H :    0.120812
  45 H :    0.117220
  46 H :    0.117459
  47 H :    0.188196

  Mayer bond orders larger than 0.100000
B(  0-C ,  1-C ) :   1.4180 B(  0-C ,  5-C ) :   1.4126 B(  0-C , 11-H ) :   0.9480
B(  1-C ,  2-C ) :   1.4331 B(  1-C , 39-H ) :   0.9527 B(  2-C ,  3-N ) :   1.3683
B(  2-C , 12-H ) :   0.9369 B(  3-N ,  4-C ) :   1.3175 B(  3-N ,  6-C ) :   0.3234
B(  4-C ,  5-C ) :   1.4418 B(  4-C , 13-H ) :   0.9335 B(  5-C , 14-H ) :   0.9535
B(  6-C ,  7-C ) :   0.9548 B(  6-C , 15-H ) :   0.9409 B(  6-C , 19-C ) :   1.0216
B(  6-C , 37-O ) :   0.3175 B(  7-C ,  8-O ) :   1.9864 B(  7-C ,  9-O ) :   1.2863
B(  9-O , 10-C ) :   0.8840 B( 10-C , 16-H ) :   0.9640 B( 10-C , 17-H ) :   0.9671
B( 10-C , 38-H ) :   0.9654 B( 18-C , 19-C ) :   0.9141 B( 18-C , 28-N ) :   1.4808
B( 18-C , 29-O ) :   0.1395 B( 18-C , 40-C ) :   1.0996 B( 19-C , 20-C ) :   0.8216
B( 19-C , 47-H ) :   0.9319 B( 20-C , 21-C ) :   1.3671 B( 20-C , 25-C ) :   1.3032
B( 21-C , 22-C ) :   1.4068 B( 21-C , 30-H ) :   0.9719 B( 22-C , 23-C ) :   1.3988
B( 22-C , 31-H ) :   0.9829 B( 23-C , 24-C ) :   1.3983 B( 23-C , 32-H ) :   0.9677
B( 24-C , 25-C ) :   1.3647 B( 24-C , 33-H ) :   0.9604 B( 25-C , 26-O ) :   1.0907
B( 26-O , 27-C ) :   0.9355 B( 27-C , 34-H ) :   0.9577 B( 27-C , 35-H ) :   0.9637
B( 27-C , 36-H ) :   0.9648 B( 28-N , 29-O ) :   1.4970 B( 28-N , 37-O ) :   1.1151
B( 40-C , 41-O ) :   1.9938 B( 40-C , 42-O ) :   1.2155 B( 42-O , 43-C ) :   0.9110
B( 43-C , 44-H ) :   0.9655 B( 43-C , 45-H ) :   0.9693 B( 43-C , 46-H ) :   0.9682

Dispersion correction           -0.061464670
FINAL SINGLE POINT ENERGY     -1371.047165318634

DIPOLE MOMENT
-------------
                                X             Y             Z
Electronic contribution:     10.97674       5.53192       4.08171
Nuclear contribution   :    -16.27079     -11.83707      -4.03781
                        -----------------------------------------
Total Dipole Moment    :     -5.29405      -6.30516       0.04390
                        -----------------------------------------
Magnitude (a.u.)       :      8.23310
Magnitude (Debye)      :     20.92687

Dispersion correction in the Hessian             ... done   (      0.7 sec)

VIBRATIONAL FREQUENCIES
-----------------------

Scaling factor for frequencies =  1.000000000  (already applied!)

   0:         0.00 cm**-1
   1:         0.00 cm**-1
   2:         0.00 cm**-1
   3:         0.00 cm**-1
   4:         0.00 cm**-1
   5:         0.00 cm**-1
   6:      -548.72 cm**-1 ***imaginary mode***
   7:        21.28 cm**-1
   8:        35.18 cm**-1
   9:        38.29 cm**-1
  10:        43.66 cm**-1
  11:        50.90 cm**-1
  12:        57.64 cm**-1
  13:        60.30 cm**-1
  14:        65.34 cm**-1
  15:        86.64 cm**-1
  16:        97.91 cm**-1
  17:       102.91 cm**-1
  18:       121.19 cm**-1
  19:       128.02 cm**-1
  20:       146.62 cm**-1
  21:       153.54 cm**-1
  22:       156.11 cm**-1
  23:       160.38 cm**-1
  24:       171.79 cm**-1
  25:       184.64 cm**-1
  26:       191.37 cm**-1
  27:       211.25 cm**-1
  28:       239.62 cm**-1
  29:       250.69 cm**-1
  30:       259.67 cm**-1
  31:       275.83 cm**-1
  32:       293.09 cm**-1
  33:       317.87 cm**-1
  34:       324.09 cm**-1
  35:       351.40 cm**-1
  36:       359.57 cm**-1
  37:       395.34 cm**-1
  38:       408.64 cm**-1
  39:       443.96 cm**-1
  40:       473.58 cm**-1
  41:       489.10 cm**-1
  42:       504.39 cm**-1
  43:       557.04 cm**-1
  44:       583.15 cm**-1
  45:       612.97 cm**-1
  46:       629.03 cm**-1
  47:       636.52 cm**-1
  48:       660.15 cm**-1
  49:       711.02 cm**-1
  50:       715.90 cm**-1
  51:       734.27 cm**-1
  52:       746.27 cm**-1
  53:       767.36 cm**-1
  54:       773.14 cm**-1
  55:       776.11 cm**-1
  56:       778.32 cm**-1
  57:       782.95 cm**-1
  58:       797.89 cm**-1
  59:       815.83 cm**-1
  60:       847.59 cm**-1
  61:       872.81 cm**-1
  62:       890.03 cm**-1
  63:       894.35 cm**-1
  64:       961.97 cm**-1
  65:       970.69 cm**-1
  66:       979.51 cm**-1
  67:       991.38 cm**-1
  68:       993.07 cm**-1
  69:      1015.70 cm**-1
  70:      1031.23 cm**-1
  71:      1040.65 cm**-1
  72:      1044.61 cm**-1
  73:      1060.31 cm**-1
  74:      1072.65 cm**-1
  75:      1085.43 cm**-1
  76:      1095.55 cm**-1
  77:      1106.62 cm**-1
  78:      1112.24 cm**-1
  79:      1119.70 cm**-1
  80:      1136.71 cm**-1
  81:      1169.44 cm**-1
  82:      1170.21 cm**-1
  83:      1171.20 cm**-1
  84:      1171.48 cm**-1
  85:      1175.18 cm**-1
  86:      1190.24 cm**-1
  87:      1195.09 cm**-1
  88:      1199.06 cm**-1
  89:      1214.46 cm**-1
  90:      1220.09 cm**-1
  91:      1231.24 cm**-1
  92:      1237.95 cm**-1
  93:      1252.99 cm**-1
  94:      1285.96 cm**-1
  95:      1290.33 cm**-1
  96:      1303.09 cm**-1
  97:      1321.61 cm**-1
  98:      1333.37 cm**-1
  99:      1342.82 cm**-1
 100:      1379.83 cm**-1
 101:      1386.67 cm**-1
 102:      1417.40 cm**-1
 103:      1428.91 cm**-1
 104:      1464.21 cm**-1
 105:      1465.54 cm**-1
 106:      1465.99 cm**-1
 107:      1467.28 cm**-1
 108:      1472.40 cm**-1
 109:      1473.72 cm**-1
 110:      1478.17 cm**-1
 111:      1479.87 cm**-1
 112:      1483.02 cm**-1
 113:      1494.07 cm**-1
 114:      1497.50 cm**-1
 115:      1528.91 cm**-1
 116:      1538.86 cm**-1
 117:      1553.76 cm**-1
 118:      1649.13 cm**-1
 119:      1649.35 cm**-1
 120:      1663.65 cm**-1
 121:      1666.29 cm**-1
 122:      1758.34 cm**-1
 123:      1785.22 cm**-1
 124:      3036.05 cm**-1
 125:      3065.64 cm**-1
 126:      3072.93 cm**-1
 127:      3107.12 cm**-1
 128:      3134.56 cm**-1
 129:      3144.87 cm**-1
 130:      3156.87 cm**-1
 131:      3164.56 cm**-1
 132:      3179.99 cm**-1
 133:      3183.57 cm**-1
 134:      3192.68 cm**-1
 135:      3195.03 cm**-1
 136:      3198.40 cm**-1
 137:      3202.48 cm**-1
 138:      3212.65 cm**-1
 139:      3213.61 cm**-1
 140:      3230.21 cm**-1
 141:      3230.96 cm**-1
 142:      3234.44 cm**-1
 143:      3275.65 cm**-1

IR SPECTRUM
-----------

 Mode   freq       eps      Int      T**2         TX        TY        TZ
       cm**-1   L/(mol*cm) km/mol    a.u.
----------------------------------------------------------------------------
  7:     21.28   0.000123    0.62  0.001798  (-0.018468 -0.000969  0.038158)
  8:     35.18   0.000078    0.39  0.000693  (-0.000477 -0.025860  0.004919)
  9:     38.29   0.000240    1.21  0.001954  ( 0.026031 -0.034758 -0.008288)
 10:     43.66   0.000424    2.15  0.003034  (-0.019772  0.040962  0.031065)
 11:     50.90   0.000662    3.35  0.004062  ( 0.035204  0.016923 -0.050360)
 12:     57.64   0.000515    2.60  0.002789  (-0.013453  0.043826  0.026217)
 13:     60.30   0.000432    2.18  0.002235  (-0.007520  0.046141  0.007012)
 14:     65.34   0.000593    3.00  0.002834  (-0.028610 -0.041246 -0.017730)
 15:     86.64   0.000372    1.88  0.001340  ( 0.010420 -0.026327 -0.023198)
 16:     97.91   0.001279    6.47  0.004078  (-0.016189  0.053940 -0.030105)
 17:    102.91   0.000116    0.59  0.000353  (-0.016145 -0.001111  0.009520)
 18:    121.19   0.000173    0.87  0.000446  (-0.006949 -0.017924 -0.008716)
 19:    128.02   0.000230    1.16  0.000561  ( 0.013662  0.012161 -0.015035)
 20:    146.62   0.000322    1.63  0.000685  ( 0.017035  0.013091  0.014948)
 21:    153.54   0.000420    2.12  0.000853  (-0.024518 -0.015722 -0.002217)
 22:    156.11   0.000588    2.97  0.001175  (-0.004781 -0.033731 -0.003765)
 23:    160.38   0.000571    2.88  0.001111  (-0.013447 -0.030159 -0.004491)
 24:    171.79   0.003081   15.57  0.005596  (-0.013051 -0.073233 -0.007927)
 25:    184.64   0.001824    9.22  0.003083  ( 0.000437  0.039144  0.039382)
 26:    191.37   0.004244   21.45  0.006921  ( 0.055165  0.056753 -0.025637)
 27:    211.25   0.000015    0.08  0.000023  (-0.003270  0.001748  0.002982)
 28:    239.62   0.001665    8.41  0.002168  (-0.001075  0.046338  0.004487)
 29:    250.69   0.000276    1.40  0.000344  ( 0.009563  0.012028  0.010388)
 30:    259.67   0.001112    5.62  0.001336  (-0.006981  0.034892  0.008365)
 31:    275.83   0.005844   29.53  0.006612  ( 0.063662 -0.021495  0.045791)
 32:    293.09   0.001089    5.50  0.001160  ( 0.024129  0.003232  0.023809)
 33:    317.87   0.000837    4.23  0.000821  ( 0.028472  0.002550 -0.002056)
 34:    324.09   0.000373    1.88  0.000359  ( 0.005985  0.011684  0.013657)
 35:    351.40   0.004684   23.67  0.004160  ( 0.008781 -0.063837  0.002767)
 36:    359.57   0.001627    8.22  0.001412  ( 0.034472 -0.013654 -0.006136)
 37:    395.34   0.000010    0.05  0.000008  (-0.002552 -0.000005 -0.001314)
 38:    408.64   0.004451   22.49  0.003399  (-0.037964  0.018615 -0.040142)
 39:    443.96   0.001535    7.76  0.001079  ( 0.031853 -0.007342 -0.003255)
 40:    473.58   0.000120    0.61  0.000079  ( 0.002585  0.002118 -0.008252)
 41:    489.10   0.002440   12.33  0.001556  (-0.035424 -0.011090  0.013367)
 42:    504.39   0.000482    2.44  0.000298  ( 0.004920 -0.004484  0.015938)
 43:    557.04   0.002606   13.17  0.001460  ( 0.002294  0.036898 -0.009653)
 44:    583.15   0.002642   13.35  0.001414  (-0.015244  0.020609  0.027505)
 45:    612.97   0.004311   21.79  0.002195  (-0.039551 -0.021355  0.013214)
 46:    629.03   0.010615   53.64  0.005266  ( 0.004819  0.070195 -0.017761)
 47:    636.52   0.002004   10.13  0.000983  ( 0.015966  0.026664 -0.004085)
 48:    660.15   0.000083    0.42  0.000039  (-0.004019 -0.004625  0.001257)
 49:    711.02   0.014068   71.09  0.006174  ( 0.064700 -0.041413  0.016526)
 50:    715.90   0.012613   63.74  0.005498  (-0.014151  0.067557 -0.027093)
 51:    734.27   0.004660   23.55  0.001980  ( 0.041720 -0.011105 -0.010789)
 52:    746.27   0.000217    1.10  0.000091  ( 0.000312 -0.001539  0.009393)
 53:    767.36   0.016676   84.27  0.006781  (-0.000218  0.070882 -0.041919)
 54:    773.14   0.005251   26.54  0.002120  (-0.038840  0.009698 -0.022739)
 55:    776.11   0.007273   36.76  0.002925  (-0.001830 -0.050430  0.019442)
 56:    778.32   0.003794   19.17  0.001521  ( 0.007387  0.032086 -0.020904)
 57:    782.95   0.006875   34.74  0.002740  ( 0.036748 -0.021752 -0.030274)
 58:    797.89   0.011133   56.26  0.004354  (-0.017523  0.052750  0.035563)
 59:    815.83   0.002368   11.97  0.000906  (-0.001447 -0.021942  0.020547)
 60:    847.59   0.002259   11.41  0.000832  (-0.011984 -0.009290  0.024530)
 61:    872.81   0.002740   13.85  0.000980  ( 0.003914 -0.030294  0.006837)
 62:    890.03   0.005667   28.64  0.001987  ( 0.013654 -0.041364  0.009466)
 63:    894.35   0.000034    0.17  0.000012  (-0.001161  0.002549 -0.001992)
 64:    961.97   0.000682    3.45  0.000221  (-0.003402 -0.008179  0.011946)
 65:    970.69   0.002077   10.50  0.000668  ( 0.014988 -0.018027 -0.010865)
 66:    979.51   0.000354    1.79  0.000113  ( 0.009056 -0.005521  0.000580)
 67:    991.38   0.035921  181.53  0.011307  ( 0.066153 -0.048632  0.067569)
 68:    993.07   0.000395    2.00  0.000124  ( 0.006058 -0.002189  0.009088)
 69:   1015.70   0.000004    0.02  0.000001  (-0.000636  0.000471  0.000744)
 70:   1031.23   0.008158   41.23  0.002469  ( 0.032234  0.018774 -0.032821)
 71:   1040.65   0.000029    0.14  0.000009  (-0.001144  0.002513  0.000968)
 72:   1044.61   0.009487   47.95  0.002834  (-0.003016 -0.051167 -0.014390)
 73:   1060.31   0.000197    0.99  0.000058  ( 0.002658  0.001180  0.007032)
 74:   1072.65   0.008227   41.58  0.002394  ( 0.048083  0.006620  0.006141)
 75:   1085.43   0.009551   48.27  0.002746  ( 0.023163  0.012727  0.045250)
 76:   1095.55   0.018703   94.52  0.005328  (-0.003411 -0.066844  0.029115)
 77:   1106.62   0.003415   17.26  0.000963  (-0.006513 -0.017553  0.024751)
 78:   1112.24   0.026478  133.81  0.007429  ( 0.041368 -0.034100  0.067490)
 79:   1119.70   0.123129  622.24  0.034316  ( 0.093281 -0.101175  0.124010)
 80:   1136.71   0.039552  199.88  0.010858  (-0.074293 -0.003590 -0.072979)
 81:   1169.44   0.000853    4.31  0.000228  (-0.004769  0.002429  0.014105)
 82:   1170.21   0.000194    0.98  0.000052  ( 0.001596  0.006176 -0.003340)
 83:   1171.20   0.000213    1.08  0.000057  ( 0.004788 -0.003261 -0.004814)
 84:   1171.48   0.000437    2.21  0.000116  ( 0.006374  0.008260  0.002756)
 85:   1175.18   0.002501   12.64  0.000664  (-0.022356 -0.002343 -0.012601)
 86:   1190.24   0.007081   35.78  0.001857  ( 0.041001 -0.012246  0.005047)
 87:   1195.09   0.001533    7.75  0.000400  (-0.001715  0.000711  0.019922)
 88:   1199.06   0.033199  167.78  0.008640  ( 0.063557 -0.055333  0.039232)
 89:   1214.46   0.000895    4.52  0.000230  ( 0.000795  0.011873 -0.009395)
 90:   1220.09   0.024614  124.39  0.006296  ( 0.068129 -0.025813  0.031428)
 91:   1231.24   0.012513   63.24  0.003171  (-0.025408 -0.031988 -0.038764)
 92:   1237.95   0.004573   23.11  0.001153  ( 0.014700  0.030523  0.002262)
 93:   1252.99   0.045119  228.01  0.011237  ( 0.067432 -0.061903  0.053459)
 94:   1285.96   0.036040  182.13  0.008746  (-0.047508 -0.070076 -0.039727)
 95:   1290.33   0.095372  481.97  0.023065  ( 0.101349 -0.083868  0.075895)
 96:   1303.09   0.080077  404.68  0.019177  (-0.061621 -0.048562 -0.114112)
 97:   1321.61   0.021958  110.97  0.005185  ( 0.017479  0.062606  0.030982)
 98:   1333.37   0.039316  198.69  0.009202  ( 0.068091  0.067183  0.007190)
 99:   1342.82   0.000862    4.36  0.000200  ( 0.006122 -0.007334 -0.010448)
100:   1379.83   0.017958   90.75  0.004061  (-0.057167 -0.015212 -0.023705)
101:   1386.67   0.002705   13.67  0.000609  ( 0.006227 -0.000052  0.023876)
102:   1417.40   0.014676   74.17  0.003231  ( 0.026345  0.034987 -0.036237)
103:   1428.91   0.036862  186.29  0.008050  ( 0.036890 -0.065997  0.048311)
104:   1464.21   0.003036   15.34  0.000647  (-0.017411  0.013642  0.012559)
105:   1465.54   0.003693   18.66  0.000786  ( 0.015180  0.022586  0.006762)
106:   1465.99   0.009679   48.91  0.002060  ( 0.006838  0.009768  0.043797)
107:   1467.28   0.029375  148.45  0.006247  (-0.045919  0.036311 -0.053107)
108:   1472.40   0.005925   29.94  0.001256  ( 0.020216 -0.020065  0.021084)
109:   1473.72   0.002972   15.02  0.000629  (-0.003405  0.022091 -0.011385)
110:   1478.17   0.004830   24.41  0.001020  (-0.009658 -0.027663  0.012697)
111:   1479.87   0.018747   94.74  0.003953  ( 0.055063 -0.030268 -0.002287)
112:   1483.02   0.004964   25.09  0.001045  ( 0.004192 -0.014966 -0.028337)
113:   1494.07   0.016790   84.85  0.003507  (-0.004019  0.000557  0.059080)
114:   1497.50   0.013056   65.98  0.002721  (-0.015940 -0.026555 -0.041969)
115:   1528.91   0.000517    2.61  0.000106  (-0.009205 -0.004530 -0.000596)
116:   1538.86   0.052657  266.11  0.010678  ( 0.034847  0.042692  0.087415)
117:   1553.76   0.143229  723.82  0.028767  (-0.141774  0.025327 -0.089583)
118:   1649.13   0.001614    8.16  0.000305  (-0.012514 -0.006264  0.010466)
119:   1649.35   0.004269   21.57  0.000808  ( 0.014292  0.015212  0.019289)
120:   1663.65   0.013056   65.98  0.002449  ( 0.000207 -0.028448 -0.040494)
121:   1666.29   0.011140   56.30  0.002086  (-0.029941 -0.034357 -0.003088)
122:   1758.34   0.152207  769.19  0.027013  ( 0.095609  0.130175 -0.030437)
123:   1785.22   0.092200  465.94  0.016117  ( 0.018805  0.033823 -0.120910)
124:   3036.05   0.012472   63.03  0.001282  (-0.029053 -0.012531 -0.016759)
125:   3065.64   0.008315   42.02  0.000846  ( 0.009560 -0.016374  0.022065)
126:   3072.93   0.005551   28.05  0.000564  ( 0.019368 -0.012856 -0.004830)
127:   3107.12   0.007965   40.25  0.000800  ( 0.004306 -0.023271  0.015488)
128:   3134.56   0.000861    4.35  0.000086  ( 0.007554 -0.004105  0.003434)
129:   3144.87   0.005000   25.27  0.000496  (-0.012420  0.011097  0.014792)
130:   3156.87   0.003680   18.60  0.000364  (-0.011600 -0.014401 -0.004676)
131:   3164.56   0.003787   19.14  0.000373  (-0.006348  0.009473  0.015603)
132:   3179.99   0.002973   15.03  0.000292  (-0.013757 -0.008680 -0.005211)
133:   3183.57   0.000527    2.66  0.000052  (-0.007027 -0.001267 -0.000805)
134:   3192.68   0.002027   10.25  0.000198  (-0.003784  0.006614 -0.011836)
135:   3195.03   0.001476    7.46  0.000144  ( 0.011628 -0.000673 -0.002916)
136:   3198.40   0.000584    2.95  0.000057  ( 0.004395  0.004011 -0.004644)
137:   3202.48   0.001067    5.39  0.000104  (-0.007490 -0.006876  0.000765)
138:   3212.65   0.000047    0.24  0.000005  (-0.000467 -0.001412 -0.001549)
139:   3213.61   0.002964   14.98  0.000288  (-0.003001  0.008555  0.014339)
140:   3230.21   0.000206    1.04  0.000020  (-0.000757  0.000492  0.004372)
141:   3230.96   0.000443    2.24  0.000043  ( 0.006074  0.001229  0.002086)
142:   3234.44   0.000342    1.73  0.000033  ( 0.003466  0.004577  0.000196)
143:   3275.65   0.000316    1.60  0.000030  (-0.002242 -0.003654 -0.003420)

--------------------------
THERMOCHEMISTRY AT 298.15K
--------------------------

Temperature         ... 298.15 K
Pressure            ... 1.00 atm
Total Mass          ... 388.38 AMU

Throughout the following assumptions are being made:
  (1) The electronic state is orbitally nondegenerate
  (2) There are no thermally accessible electronically excited states
  (3) Hindered rotations indicated by low frequency modes are not
      treated as such but are treated as vibrations and this may
      cause some error
  (4) All equations used are the standard statistical mechanics
      equations for an ideal gas
  (5) All vibrations are strictly harmonic

freq.      21.28  E(vib)   ...       0.56
freq.      35.18  E(vib)   ...       0.54
freq.      38.29  E(vib)   ...       0.54
freq.      43.66  E(vib)   ...       0.53
freq.      50.90  E(vib)   ...       0.52
freq.      57.64  E(vib)   ...       0.51
freq.      60.30  E(vib)   ...       0.51
freq.      65.34  E(vib)   ...       0.50
freq.      86.64  E(vib)   ...       0.48
freq.      97.91  E(vib)   ...       0.46
freq.     102.91  E(vib)   ...       0.46
freq.     121.19  E(vib)   ...       0.44
freq.     128.02  E(vib)   ...       0.43
freq.     146.62  E(vib)   ...       0.41
freq.     153.54  E(vib)   ...       0.40
freq.     156.11  E(vib)   ...       0.40
freq.     160.38  E(vib)   ...       0.39
freq.     171.79  E(vib)   ...       0.38
freq.     184.64  E(vib)   ...       0.37
freq.     191.37  E(vib)   ...       0.36
freq.     211.25  E(vib)   ...       0.34
freq.     239.62  E(vib)   ...       0.31
freq.     250.69  E(vib)   ...       0.30
freq.     259.67  E(vib)   ...       0.30
freq.     275.83  E(vib)   ...       0.28
freq.     293.09  E(vib)   ...       0.27
freq.     317.87  E(vib)   ...       0.25
freq.     324.09  E(vib)   ...       0.25
freq.     351.40  E(vib)   ...       0.23
freq.     359.57  E(vib)   ...       0.22
freq.     395.34  E(vib)   ...       0.20
freq.     408.64  E(vib)   ...       0.19
freq.     443.96  E(vib)   ...       0.17
freq.     473.58  E(vib)   ...       0.15
freq.     489.10  E(vib)   ...       0.15
freq.     504.39  E(vib)   ...       0.14
freq.     557.04  E(vib)   ...       0.12
freq.     583.15  E(vib)   ...       0.11
freq.     612.97  E(vib)   ...       0.10
freq.     629.03  E(vib)   ...       0.09
freq.     636.52  E(vib)   ...       0.09
freq.     660.15  E(vib)   ...       0.08
freq.     711.02  E(vib)   ...       0.07
freq.     715.90  E(vib)   ...       0.07
freq.     734.27  E(vib)   ...       0.06
freq.     746.27  E(vib)   ...       0.06
freq.     767.36  E(vib)   ...       0.06
freq.     773.14  E(vib)   ...       0.05
freq.     776.11  E(vib)   ...       0.05
freq.     778.32  E(vib)   ...       0.05
freq.     782.95  E(vib)   ...       0.05
freq.     797.89  E(vib)   ...       0.05
freq.     815.83  E(vib)   ...       0.05
freq.     847.59  E(vib)   ...       0.04
freq.     872.81  E(vib)   ...       0.04
freq.     890.03  E(vib)   ...       0.04
freq.     894.35  E(vib)   ...       0.03
freq.     961.97  E(vib)   ...       0.03
freq.     970.69  E(vib)   ...       0.03
freq.     979.51  E(vib)   ...       0.03
freq.     991.38  E(vib)   ...       0.02
freq.     993.07  E(vib)   ...       0.02
freq.    1015.70  E(vib)   ...       0.02
freq.    1031.23  E(vib)   ...       0.02
freq.    1040.65  E(vib)   ...       0.02
freq.    1044.61  E(vib)   ...       0.02
freq.    1060.31  E(vib)   ...       0.02
freq.    1072.65  E(vib)   ...       0.02
freq.    1085.43  E(vib)   ...       0.02
freq.    1095.55  E(vib)   ...       0.02
freq.    1106.62  E(vib)   ...       0.02
freq.    1112.24  E(vib)   ...       0.01
freq.    1119.70  E(vib)   ...       0.01
freq.    1136.71  E(vib)   ...       0.01
freq.    1169.44  E(vib)   ...       0.01
freq.    1170.21  E(vib)   ...       0.01
freq.    1171.20  E(vib)   ...       0.01
freq.    1171.48  E(vib)   ...       0.01
freq.    1175.18  E(vib)   ...       0.01
freq.    1190.24  E(vib)   ...       0.01
freq.    1195.09  E(vib)   ...       0.01
freq.    1199.06  E(vib)   ...       0.01
freq.    1214.46  E(vib)   ...       0.01
freq.    1220.09  E(vib)   ...       0.01
freq.    1231.24  E(vib)   ...       0.01
freq.    1237.95  E(vib)   ...       0.01
freq.    1252.99  E(vib)   ...       0.01
freq.    1285.96  E(vib)   ...       0.01
freq.    1290.33  E(vib)   ...       0.01
freq.    1303.09  E(vib)   ...       0.01
freq.    1321.61  E(vib)   ...       0.01
freq.    1333.37  E(vib)   ...       0.01
freq.    1342.82  E(vib)   ...       0.01
freq.    1379.83  E(vib)   ...       0.01
freq.    1386.67  E(vib)   ...       0.00
freq.    1417.40  E(vib)   ...       0.00
freq.    1428.91  E(vib)   ...       0.00
freq.    1464.21  E(vib)   ...       0.00
freq.    1465.54  E(vib)   ...       0.00
freq.    1465.99  E(vib)   ...       0.00
freq.    1467.28  E(vib)   ...       0.00
freq.    1472.40  E(vib)   ...       0.00
freq.    1473.72  E(vib)   ...       0.00
freq.    1478.17  E(vib)   ...       0.00
freq.    1479.87  E(vib)   ...       0.00
freq.    1483.02  E(vib)   ...       0.00
freq.    1494.07  E(vib)   ...       0.00
freq.    1497.50  E(vib)   ...       0.00
freq.    1528.91  E(vib)   ...       0.00
freq.    1538.86  E(vib)   ...       0.00
freq.    1553.76  E(vib)   ...       0.00
freq.    1649.13  E(vib)   ...       0.00
freq.    1649.35  E(vib)   ...       0.00
freq.    1663.65  E(vib)   ...       0.00
freq.    1666.29  E(vib)   ...       0.00
freq.    1758.34  E(vib)   ...       0.00
freq.    1785.22  E(vib)   ...       0.00
freq.    3036.05  E(vib)   ...       0.00
freq.    3065.64  E(vib)   ...       0.00
freq.    3072.93  E(vib)   ...       0.00
freq.    3107.12  E(vib)   ...       0.00
freq.    3134.56  E(vib)   ...       0.00
freq.    3144.87  E(vib)   ...       0.00
freq.    3156.87  E(vib)   ...       0.00
freq.    3164.56  E(vib)   ...       0.00
freq.    3179.99  E(vib)   ...       0.00
freq.    3183.57  E(vib)   ...       0.00
freq.    3192.68  E(vib)   ...       0.00
freq.    3195.03  E(vib)   ...       0.00
freq.    3198.40  E(vib)   ...       0.00
freq.    3202.48  E(vib)   ...       0.00
freq.    3212.65  E(vib)   ...       0.00
freq.    3213.61  E(vib)   ...       0.00
freq.    3230.21  E(vib)   ...       0.00
freq.    3230.96  E(vib)   ...       0.00
freq.    3234.44  E(vib)   ...       0.00
freq.    3275.65  E(vib)   ...       0.00

------------
INNER ENERGY
------------

The inner energy is: U= E(el) + E(ZPE) + E(vib) + E(rot) + E(trans)
    E(el)   - is the total energy from the electronic structure calculation

Rotational constants in cm-1:     0.007123     0.006299     0.004511

                             ****ORCA TERMINATED NORMALLY****
TOTAL RUN TIME: 0 days 2 hours 43 minutes 0 seconds 732 msec
