                         Program Version 5.0.4 -  RELEASE  -
|  1> %pal nprocs 24 end
|  2> ! PBE0 D3BJ def2-TZVP TightSCF OPTTS FREQ TightOpt
|  3> ! CPCM(dmso)
|  4> %scf
|  5> MaxIter 800
|  6> end
|  7>
|  8> %geom
|  9> MaxIter 800
| 10> MaxStep 0.15
| 11> end
| 12>
| 13> *xyz 0 1
| 14> C      -2.99000000      3.00241700      0.14864500
| 15> C      -2.67728500      2.42930900     -1.08307200
| 16> C      -1.46299700      1.76633600     -1.21840600
| 17> N      -0.60583700      1.66797800     -0.20347800
| 18> C      -0.89156800      2.20761700      0.98062800
| 19> C      -2.08008200      2.89509800      1.19823000
| 20> C       1.04481300      0.49102100     -0.56367100
| 21> C       1.92205600      1.52988300      0.06163600
| 22> O       2.21518500      1.53081700      1.23374700
| 23> O       2.31203400      2.42976600     -0.82087900
| 24> C       3.16020300      3.46791500     -0.33708600
| 25> H      -3.93712100      3.52868200      0.28915500
| 26> H      -1.17319800      1.29161500     -2.16096500
| 27> H      -0.14606000      2.08510700      1.77232000
| 28> H      -2.28496000      3.32892500      2.17835200
| 29> H       0.78156100      0.59204800     -1.61326800
| 30> H       4.09472700      3.04561300      0.05847000
| 31> H       2.65471100      4.03693300      0.45591100
| 32> C       1.67494500     -1.60598300      0.49116600
| 33> C       0.52575100     -0.66408500      0.28011300
| 34> C      -0.67808900     -1.32445400     -0.36008400
| 35> C      -0.55877200     -1.97669800     -1.58679500
| 36> C      -1.66403200     -2.55275800     -2.21139500
| 37> C      -2.90916400     -2.47560000     -1.59063200
| 38> C      -3.05351600     -1.83494900     -0.36034700
| 39> C      -1.93952900     -1.25869000      0.26309200
| 40> O      -1.99257800     -0.62009600      1.44797100
| 41> C      -3.23717700     -0.44081900      2.08232200
| 42> N       2.72631300     -1.43339600     -0.31672700
| 43> O       3.73920800     -2.12142200     -0.33907400
| 44> H       0.22964400     -0.25939700      1.25687700
| 45> H       0.42427200     -2.02473400     -2.06456500
| 46> H      -1.55261400     -3.05547100     -3.17434700
| 47> H      -3.78822000     -2.91960800     -2.06476000
| 48> H      -4.03607200     -1.78635300      0.10970900
| 49> H      -3.69449800     -1.40637600      2.35423000
| 50> H      -3.93498800      0.12470000      1.44311000
| 51> H      -3.03933300      0.13516400      2.99442600
| 52> O       2.62272400     -0.42581900     -1.13464500
| 53> H       3.36852300      4.11484100     -1.19566000
| 54> H      -3.36218900      2.48824800     -1.93057500
| 55> C       1.68674800     -2.66174100      1.41410300
| 56> N       1.65887600     -3.52429300      2.19625800
| 57> *
| 58>
| 59>                          ****END OF INPUT****
 Total Charge           Charge          ....    0
 Multiplicity           Mult            ....    1
 Number of Electrons    NEL             ....  186
Dispersion correction           -0.056703714
FINAL SINGLE POINT ENERGY     -1235.488476464205
Dispersion correction            ... done
Dispersion correction           -0.056613323
FINAL SINGLE POINT ENERGY     -1235.488503964632
Dispersion correction            ... done
Dispersion correction           -0.056881769
FINAL SINGLE POINT ENERGY     -1235.487107592357
Dispersion correction            ... done
FINAL SINGLE POINT ENERGY     -1235.487555917844
FINAL SINGLE POINT ENERGY     -1235.489044876165
FINAL SINGLE POINT ENERGY     -1235.489330408323
FINAL SINGLE POINT ENERGY     -1235.489529354743
FINAL SINGLE POINT ENERGY     -1235.490762862086
FINAL SINGLE POINT ENERGY     -1235.490672135748
FINAL SINGLE POINT ENERGY     -1235.490456190437
FINAL SINGLE POINT ENERGY     -1235.490586529423
FINAL SINGLE POINT ENERGY     -1235.490596154791
FINAL SINGLE POINT ENERGY     -1235.490599685492
FINAL SINGLE POINT ENERGY     -1235.490615243641
FINAL SINGLE POINT ENERGY     -1235.490618460172
FINAL SINGLE POINT ENERGY     -1235.490621597293
FINAL SINGLE POINT ENERGY     -1235.490622761731
Dispersion correction           -0.056663273
FINAL SINGLE POINT ENERGY     -1235.490623183509
Dispersion correction            ... done
Dispersion correction           -0.056670670
FINAL SINGLE POINT ENERGY     -1235.490623394689
Dispersion correction            ... done
                    ***********************HURRAY********************

CARTESIAN COORDINATES (ANGSTROEM)
---------------------------------
  C     -2.986776    2.973321   -0.115381
  C     -2.549077    2.466041   -1.329954
  C     -1.337093    1.803942   -1.372044
  N     -0.591376    1.642365   -0.283313
  C     -0.997464    2.127964    0.884820
  C     -2.196254    2.806757    1.010254
  C      1.091830    0.487645   -0.545523
  C      1.914516    1.549548    0.107947
  O      2.151608    1.568274    1.290530
  O      2.327602    2.443909   -0.770118
  C      3.127675    3.512589   -0.250836
  H     -3.934916    3.493518   -0.048154
  H     -0.955852    1.380496   -2.295128
  H     -0.345541    1.966206    1.735840
  H     -2.498968    3.187773    1.976906
  H      0.873086    0.570524   -1.596702
  H      4.041350    3.115601    0.191413
  H      2.566764    4.071368    0.498297
  C      1.659015   -1.658074    0.444708
  C      0.552335   -0.662575    0.284596
  C     -0.687952   -1.274450   -0.326823
  C     -0.646124   -1.837701   -1.593520
  C     -1.783087   -2.366471   -2.186187
  C     -2.982112   -2.334963   -1.491117
  C     -3.047351   -1.790844   -0.216298
  C     -1.900937   -1.265353    0.374263
  O     -1.878777   -0.727086    1.611717
  C     -3.103477   -0.582794    2.304992
  N      2.743256   -1.464211   -0.293749
  O      3.736199   -2.194128   -0.327742
  H      0.304899   -0.265615    1.269752
  H      0.297288   -1.855147   -2.130504
  H     -1.731650   -2.796416   -3.178999
  H     -3.882609   -2.740841   -1.938015
  H     -3.990575   -1.779916    0.312977
  H     -3.558040   -1.555306    2.512648
  H     -3.804436    0.035476    1.736957
  H     -2.859788   -0.087844    3.242718
  O      2.719875   -0.396394   -1.038988
  H      3.359326    4.144353   -1.103764
  H     -3.134900    2.574283   -2.233465
  C      1.588159   -2.778355    1.275701
  N      1.482766   -3.690173    1.979328

 Multiplicity           Mult            ....    1
 Number of Electrons    NEL             ....  186
 Basis Dimension        Dim             ....  908

ORBITAL ENERGIES
----------------

  NO   OCC          E(Eh)            E(eV)
   0   2.0000     -19.271032      -524.3914
   1   2.0000     -19.247904      -523.7621
   2   2.0000     -19.244898      -523.6803
   3   2.0000     -19.218902      -522.9729
   4   2.0000     -19.212469      -522.7979
   5   2.0000     -14.602646      -397.3582
   6   2.0000     -14.441041      -392.9607
   7   2.0000     -14.391711      -391.6184
   8   2.0000     -10.373282      -282.2714
   9   2.0000     -10.337818      -281.3063
  10   2.0000     -10.294612      -280.1306
  11   2.0000     -10.291148      -280.0364
  12   2.0000     -10.285158      -279.8734
  13   2.0000     -10.284732      -279.8618
  14   2.0000     -10.277716      -279.6709
  15   2.0000     -10.275839      -279.6198
  16   2.0000     -10.273663      -279.5606
  17   2.0000     -10.267703      -279.3984
  18   2.0000     -10.260113      -279.1919
  19   2.0000     -10.250656      -278.9345
  20   2.0000     -10.250476      -278.9296
  21   2.0000     -10.243921      -278.7513
  22   2.0000     -10.233702      -278.4732
  23   2.0000     -10.232143      -278.4308
  24   2.0000     -10.228374      -278.3282
  25   2.0000     -10.224273      -278.2166
  26   2.0000      -1.241751       -33.7898
  27   2.0000      -1.162649       -31.6373
  28   2.0000      -1.111213       -30.2376
  29   2.0000      -1.071560       -29.1586
  30   2.0000      -1.064250       -28.9597
  31   2.0000      -1.017906       -27.6986
  32   2.0000      -0.951189       -25.8832
  33   2.0000      -0.911298       -24.7977
  34   2.0000      -0.885527       -24.0964
  35   2.0000      -0.859217       -23.3805
  36   2.0000      -0.838888       -22.8273
  37   2.0000      -0.815095       -22.1799
  38   2.0000      -0.798983       -21.7414
  39   2.0000      -0.781690       -21.2709
  40   2.0000      -0.758090       -20.6287
  41   2.0000      -0.722087       -19.6490
  42   2.0000      -0.704399       -19.1677
  43   2.0000      -0.682773       -18.5792
  44   2.0000      -0.678391       -18.4600
  45   2.0000      -0.668506       -18.1910
  46   2.0000      -0.630005       -17.1433
  47   2.0000      -0.618121       -16.8199
  48   2.0000      -0.601010       -16.3543
  49   2.0000      -0.593233       -16.1427
  50   2.0000      -0.575547       -15.6614
  51   2.0000      -0.563035       -15.3210
  52   2.0000      -0.551706       -15.0127
  53   2.0000      -0.544386       -14.8135
  54   2.0000      -0.533434       -14.5155
  55   2.0000      -0.524831       -14.2814
  56   2.0000      -0.519246       -14.1294
  57   2.0000      -0.518591       -14.1116
  58   2.0000      -0.508690       -13.8421
  59   2.0000      -0.500805       -13.6276
  60   2.0000      -0.498194       -13.5566
  61   2.0000      -0.494920       -13.4675
  62   2.0000      -0.481742       -13.1089
  63   2.0000      -0.467589       -12.7238
  64   2.0000      -0.462558       -12.5868
  65   2.0000      -0.454807       -12.3759
  66   2.0000      -0.454616       -12.3707
  67   2.0000      -0.444909       -12.1066
  68   2.0000      -0.437044       -11.8926
  69   2.0000      -0.432275       -11.7628
  70   2.0000      -0.423889       -11.5346
  71   2.0000      -0.418677       -11.3928
  72   2.0000      -0.404146       -10.9974
  73   2.0000      -0.399942       -10.8830
  74   2.0000      -0.396615       -10.7924
  75   2.0000      -0.393130       -10.6976
  76   2.0000      -0.386921       -10.5287
  77   2.0000      -0.382990       -10.4217
  78   2.0000      -0.375654       -10.2221
  79   2.0000      -0.370324       -10.0770
  80   2.0000      -0.367203        -9.9921
  81   2.0000      -0.348372        -9.4797
  82   2.0000      -0.344015        -9.3611
  83   2.0000      -0.339401        -9.2356
  84   2.0000      -0.335308        -9.1242
  85   2.0000      -0.328628        -8.9424
  86   2.0000      -0.325875        -8.8675
  87   2.0000      -0.316033        -8.5997
  88   2.0000      -0.299265        -8.1434
  89   2.0000      -0.295376        -8.0376
  90   2.0000      -0.276268        -7.5176
  91   2.0000      -0.248217        -6.7543
  92   2.0000      -0.240862        -6.5542
  93   0.0000      -0.059539        -1.6201
  94   0.0000      -0.055323        -1.5054
  95   0.0000      -0.044865        -1.2208
  96   0.0000      -0.032512        -0.8847
  97   0.0000      -0.018306        -0.4981

MULLIKEN ATOMIC CHARGES
-----------------------
   0 C :   -0.106650
   1 C :   -0.153738
   2 C :   -0.014181
   3 N :   -0.135494
   4 C :   -0.007427
   5 C :   -0.142957
   6 C :    0.045069
   7 C :    0.324690
   8 O :   -0.381066
   9 O :   -0.213016
  10 C :   -0.266488
  11 H :    0.175962
  12 H :    0.174128
  13 H :    0.181064
  14 H :    0.174958
  15 H :    0.189092
  16 H :    0.158861
  17 H :    0.157815
  18 C :    0.027916
  19 C :    0.147169
  20 C :   -0.081260
  21 C :   -0.157297
  22 C :   -0.196664
  23 C :   -0.136159
  24 C :   -0.303009
  25 C :    0.280299
  26 O :   -0.267053
  27 C :   -0.281267
  28 N :    0.455487
  29 O :   -0.448467
  30 H :    0.142661
  31 H :    0.161632
  32 H :    0.147944
  33 H :    0.153734
  34 H :    0.165066
  35 H :    0.159735
  36 H :    0.153524
  37 H :    0.161019
  38 O :   -0.386954
  39 H :    0.166962
  40 H :    0.176904
  41 C :   -0.318229
  42 N :   -0.084312
Sum of atomic charges:   -0.0000000

LOEWDIN ATOMIC CHARGES
----------------------
   0 C :   -0.087285
   1 C :   -0.121817
   2 C :   -0.158038
   3 N :    0.253185
   4 C :   -0.160574
   5 C :   -0.120732
   6 C :   -0.054592
   7 C :   -0.525028
   8 O :    0.100353
   9 O :    0.280293
  10 C :   -0.294722
  11 H :    0.165076
  12 H :    0.160410
  13 H :    0.159368
  14 H :    0.165332
  15 H :    0.169170
  16 H :    0.121392
  17 H :    0.120976
  18 C :   -0.224818
  19 C :   -0.163565
  20 C :   -0.106638
  21 C :   -0.103344
  22 C :   -0.161333
  23 C :   -0.141013
  24 C :   -0.135416
  25 C :   -0.233610
  26 O :    0.255161
  27 C :   -0.326560
  28 N :    0.009010
  29 O :   -0.130489
  30 H :    0.190963
  31 H :    0.164079
  32 H :    0.153064
  33 H :    0.155491
  34 H :    0.161255
  35 H :    0.118662
  36 H :    0.117694
  37 H :    0.122720
  38 O :   -0.001951
  39 H :    0.123994
  40 H :    0.165049
  41 C :   -0.185617
  42 N :    0.004445

  Mayer bond orders larger than 0.100000
B(  0-C ,  1-C ) :   1.4117 B(  0-C ,  5-C ) :   1.4239 B(  0-C , 11-H ) :   0.9475
B(  1-C ,  2-C ) :   1.4405 B(  1-C , 40-H ) :   0.9524 B(  2-C ,  3-N ) :   1.3570
B(  2-C , 12-H ) :   0.9374 B(  3-N ,  4-C ) :   1.3217 B(  3-N ,  6-C ) :   0.3297
B(  4-C ,  5-C ) :   1.4360 B(  4-C , 13-H ) :   0.9321 B(  5-C , 14-H ) :   0.9524
B(  6-C ,  7-C ) :   0.9649 B(  6-C , 15-H ) :   0.9318 B(  6-C , 19-C ) :   1.0704
B(  6-C , 38-O ) :   0.3547 B(  7-C ,  8-O ) :   1.9872 B(  7-C ,  9-O ) :   1.2905
B(  9-O , 10-C ) :   0.8821 B( 10-C , 16-H ) :   0.9668 B( 10-C , 17-H ) :   0.9654
B( 10-C , 39-H ) :   0.9636 B( 18-C , 19-C ) :   0.9751 B( 18-C , 28-N ) :   1.4475
B( 18-C , 29-O ) :   0.1357 B( 18-C , 41-C ) :   1.1209 B( 19-C , 20-C ) :   0.8037
B( 19-C , 30-H ) :   0.9196 B( 20-C , 21-C ) :   1.3526 B( 20-C , 25-C ) :   1.2960
B( 21-C , 22-C ) :   1.4002 B( 21-C , 31-H ) :   0.9782 B( 22-C , 23-C ) :   1.3948
B( 22-C , 32-H ) :   0.9817 B( 23-C , 24-C ) :   1.3967 B( 23-C , 33-H ) :   0.9656
B( 24-C , 25-C ) :   1.3839 B( 24-C , 34-H ) :   0.9607 B( 25-C , 26-O ) :   1.1026
B( 26-O , 27-C ) :   0.9341 B( 27-C , 35-H ) :   0.9574 B( 27-C , 36-H ) :   0.9643
B( 27-C , 37-H ) :   0.9652 B( 28-N , 29-O ) :   1.5055 B( 28-N , 38-O ) :   1.1302
B( 41-C , 42-N ) :   3.0273

Dispersion correction           -0.056667572
FINAL SINGLE POINT ENERGY     -1235.490623594034

DIPOLE MOMENT
-------------
                                X             Y             Z
Electronic contribution:     12.23453      -7.44133      -0.50347
Nuclear contribution   :    -18.12822      13.08621      -0.86940
                        -----------------------------------------
Total Dipole Moment    :     -5.89369       5.64488      -1.37288
                        -----------------------------------------
Magnitude (a.u.)       :      8.27557
Magnitude (Debye)      :     21.03483

Dispersion correction in the Hessian             ... done   (      0.7 sec)

VIBRATIONAL FREQUENCIES
-----------------------

Scaling factor for frequencies =  1.000000000  (already applied!)

   0:         0.00 cm**-1
   1:         0.00 cm**-1
   2:         0.00 cm**-1
   3:         0.00 cm**-1
   4:         0.00 cm**-1
   5:         0.00 cm**-1
   6:      -537.84 cm**-1 ***imaginary mode***
   7:        18.08 cm**-1
   8:        31.57 cm**-1
   9:        40.29 cm**-1
  10:        53.31 cm**-1
  11:        53.62 cm**-1
  12:        64.05 cm**-1
  13:        73.30 cm**-1
  14:        79.37 cm**-1
  15:        98.56 cm**-1
  16:       104.37 cm**-1
  17:       125.72 cm**-1
  18:       145.88 cm**-1
  19:       151.77 cm**-1
  20:       157.38 cm**-1
  21:       166.72 cm**-1
  22:       180.79 cm**-1
  23:       192.79 cm**-1
  24:       210.40 cm**-1
  25:       233.38 cm**-1
  26:       244.67 cm**-1
  27:       262.99 cm**-1
  28:       270.80 cm**-1
  29:       289.21 cm**-1
  30:       318.84 cm**-1
  31:       331.18 cm**-1
  32:       371.33 cm**-1
  33:       397.99 cm**-1
  34:       443.76 cm**-1
  35:       473.20 cm**-1
  36:       486.95 cm**-1
  37:       504.26 cm**-1
  38:       543.55 cm**-1
  39:       558.45 cm**-1
  40:       586.27 cm**-1
  41:       596.15 cm**-1
  42:       615.62 cm**-1
  43:       632.25 cm**-1
  44:       637.07 cm**-1
  45:       659.90 cm**-1
  46:       711.10 cm**-1
  47:       714.02 cm**-1
  48:       737.34 cm**-1
  49:       754.32 cm**-1
  50:       767.84 cm**-1
  51:       773.48 cm**-1
  52:       777.09 cm**-1
  53:       782.65 cm**-1
  54:       809.15 cm**-1
  55:       837.68 cm**-1
  56:       874.16 cm**-1
  57:       891.86 cm**-1
  58:       895.18 cm**-1
  59:       962.54 cm**-1
  60:       969.01 cm**-1
  61:       981.37 cm**-1
  62:       995.81 cm**-1
  63:      1016.80 cm**-1
  64:      1030.83 cm**-1
  65:      1041.99 cm**-1
  66:      1042.84 cm**-1
  67:      1059.85 cm**-1
  68:      1071.09 cm**-1
  69:      1084.07 cm**-1
  70:      1095.36 cm**-1
  71:      1106.96 cm**-1
  72:      1111.47 cm**-1
  73:      1136.44 cm**-1
  74:      1151.86 cm**-1
  75:      1168.02 cm**-1
  76:      1170.99 cm**-1
  77:      1172.18 cm**-1
  78:      1175.96 cm**-1
  79:      1193.71 cm**-1
  80:      1198.67 cm**-1
  81:      1214.36 cm**-1
  82:      1222.15 cm**-1
  83:      1237.20 cm**-1
  84:      1241.28 cm**-1
  85:      1271.72 cm**-1
  86:      1290.42 cm**-1
  87:      1303.84 cm**-1
  88:      1321.61 cm**-1
  89:      1332.54 cm**-1
  90:      1340.36 cm**-1
  91:      1380.66 cm**-1
  92:      1386.74 cm**-1
  93:      1417.03 cm**-1
  94:      1429.60 cm**-1
  95:      1465.69 cm**-1
  96:      1466.40 cm**-1
  97:      1472.31 cm**-1
  98:      1473.97 cm**-1
  99:      1480.95 cm**-1
 100:      1482.72 cm**-1
 101:      1492.43 cm**-1
 102:      1499.02 cm**-1
 103:      1528.14 cm**-1
 104:      1539.01 cm**-1
 105:      1570.13 cm**-1
 106:      1647.92 cm**-1
 107:      1650.05 cm**-1
 108:      1664.66 cm**-1
 109:      1665.08 cm**-1
 110:      1787.90 cm**-1
 111:      2319.54 cm**-1
 112:      3037.99 cm**-1
 113:      3074.67 cm**-1
 114:      3110.41 cm**-1
 115:      3114.15 cm**-1
 116:      3159.67 cm**-1
 117:      3166.68 cm**-1
 118:      3181.09 cm**-1
 119:      3194.56 cm**-1
 120:      3196.92 cm**-1
 121:      3200.68 cm**-1
 122:      3204.80 cm**-1
 123:      3212.63 cm**-1
 124:      3215.72 cm**-1
 125:      3230.17 cm**-1
 126:      3231.65 cm**-1
 127:      3234.37 cm**-1
 128:      3279.21 cm**-1

IR SPECTRUM
-----------

 Mode   freq       eps      Int      T**2         TX        TY        TZ
       cm**-1   L/(mol*cm) km/mol    a.u.
----------------------------------------------------------------------------
  7:     18.08   0.000021    0.11  0.000369  (-0.016735 -0.009420  0.000369)
  8:     31.57   0.000470    2.38  0.004646  ( 0.007936 -0.044956 -0.050614)
  9:     40.29   0.000130    0.66  0.001008  (-0.008727 -0.030426  0.002514)
 10:     53.31   0.000163    0.82  0.000952  (-0.015674  0.021850 -0.015132)
 11:     53.62   0.001138    5.75  0.006620  ( 0.069912 -0.031254  0.027485)
 12:     64.05   0.000087    0.44  0.000422  ( 0.002743  0.019311 -0.006417)
 13:     73.30   0.000119    0.60  0.000506  ( 0.000496 -0.020764 -0.008650)
 14:     79.37   0.000550    2.78  0.002163  (-0.002347  0.034947  0.030601)
 15:     98.56   0.000315    1.59  0.000996  ( 0.017013  0.025088 -0.008782)
 16:    104.37   0.001339    6.77  0.004003  ( 0.006201 -0.053829  0.032666)
 17:    125.72   0.000838    4.24  0.002080  ( 0.045182 -0.001629  0.006009)
 18:    145.88   0.000114    0.57  0.000243  ( 0.007258 -0.010268 -0.009232)
 19:    151.77   0.000474    2.40  0.000975  (-0.007028 -0.029740 -0.006380)
 20:    157.38   0.002081   10.52  0.004126  (-0.045999  0.044766  0.002446)
 21:    166.72   0.005741   29.01  0.010746  (-0.060831  0.083404  0.009478)
 22:    180.79   0.001317    6.66  0.002273  (-0.014314  0.030719  0.033535)
 23:    192.79   0.001777    8.98  0.002877  ( 0.041760 -0.018833  0.027902)
 24:    210.40   0.000058    0.29  0.000085  (-0.001473 -0.005996 -0.006872)
 25:    233.38   0.000744    3.76  0.000994  (-0.012500  0.028727  0.003594)
 26:    244.67   0.000258    1.31  0.000330  ( 0.005918 -0.014574 -0.009066)
 27:    262.99   0.001930    9.75  0.002290  (-0.027882 -0.038230  0.007138)
 28:    270.80   0.000113    0.57  0.000130  (-0.002262  0.006017 -0.009422)
 29:    289.21   0.003471   17.54  0.003745  ( 0.034075  0.032278 -0.039269)
 30:    318.84   0.002096   10.59  0.002052  (-0.038506 -0.018255 -0.015347)
 31:    331.18   0.000541    2.73  0.000510  (-0.004120  0.004578 -0.021720)
 32:    371.33   0.005631   28.46  0.004732  (-0.012024  0.067552 -0.004926)
 33:    397.99   0.000007    0.04  0.000005  (-0.001372  0.001294 -0.001376)
 34:    443.76   0.002340   11.82  0.001645  ( 0.037144  0.015779 -0.004077)
 35:    473.20   0.003160   15.97  0.002084  (-0.044395  0.009476  0.004809)
 36:    486.95   0.001549    7.83  0.000993  (-0.024999  0.002078 -0.019066)
 37:    504.26   0.001177    5.95  0.000729  ( 0.022020 -0.015604 -0.000559)
 38:    543.55   0.000195    0.98  0.000112  ( 0.004159  0.002689  0.009338)
 39:    558.45   0.001687    8.53  0.000943  (-0.001353  0.029021 -0.009933)
 40:    586.27   0.003634   18.37  0.001935  (-0.009295 -0.023992 -0.035672)
 41:    596.15   0.001367    6.91  0.000716  ( 0.019594 -0.017389  0.005421)
 42:    615.62   0.002742   13.86  0.001390  (-0.031927 -0.003226 -0.018985)
 43:    632.25   0.006055   30.60  0.002989  ( 0.000094  0.051972 -0.016953)
 44:    637.07   0.003443   17.40  0.001686  ( 0.025076 -0.031713  0.007207)
 45:    659.90   0.000125    0.63  0.000059  (-0.004910  0.005737 -0.001392)
 46:    711.10   0.002391   12.08  0.001049  (-0.025484  0.019193 -0.005594)
 47:    714.02   0.026103  131.91  0.011408  ( 0.036416  0.097739 -0.023006)
 48:    737.34   0.003562   18.00  0.001508  (-0.031025 -0.012480 -0.019732)
 49:    754.32   0.004921   24.87  0.002036  (-0.018298 -0.034580 -0.022473)
 50:    767.84   0.013190   66.65  0.005360  (-0.034927  0.055812 -0.032024)
 51:    773.48   0.010263   51.87  0.004141  ( 0.011525  0.053505 -0.033840)
 52:    777.09   0.002639   13.34  0.001060  ( 0.007640  0.030937 -0.006653)
 53:    782.65   0.008681   43.87  0.003461  ( 0.020689 -0.054741 -0.006046)
 54:    809.15   0.004627   23.39  0.001785  (-0.013459 -0.008818 -0.039061)
 55:    837.68   0.001114    5.63  0.000415  (-0.001744  0.014468 -0.014240)
 56:    874.16   0.002304   11.65  0.000823  (-0.000204 -0.027942  0.006471)
 57:    891.86   0.004928   24.90  0.001724  (-0.017880 -0.036969  0.006149)
 58:    895.18   0.000051    0.26  0.000018  ( 0.001771  0.003018 -0.002383)
 59:    962.54   0.001053    5.32  0.000341  ( 0.010327  0.000616  0.015306)
 60:    969.01   0.001825    9.22  0.000588  ( 0.006447  0.022451  0.006490)
 61:    981.37   0.000313    1.58  0.000099  ( 0.006076  0.007701 -0.001789)
 62:    995.81   0.000039    0.20  0.000012  ( 0.000277  0.003334  0.001050)
 63:   1016.80   0.000058    0.29  0.000018  (-0.000473  0.002379 -0.003468)
 64:   1030.83   0.007351   37.15  0.002225  (-0.038873  0.001455 -0.026688)
 65:   1041.99   0.000182    0.92  0.000054  ( 0.000988 -0.007081 -0.001835)
 66:   1042.84   0.010323   52.17  0.003089  ( 0.013800 -0.052912 -0.009954)
 67:   1059.85   0.000180    0.91  0.000053  (-0.001344  0.001820  0.006915)
 68:   1071.09   0.008789   44.42  0.002561  (-0.047968 -0.007367  0.014334)
 69:   1084.07   0.008534   43.13  0.002457  ( 0.021945 -0.005447 -0.044107)
 70:   1095.36   0.010981   55.49  0.003128  (-0.034790  0.043303 -0.006552)
 71:   1106.96   0.001170    5.91  0.000330  (-0.008386 -0.014147 -0.007711)
 72:   1111.47   0.002878   14.54  0.000808  (-0.011296 -0.008474  0.024670)
 73:   1136.44   0.011880   60.04  0.003262  (-0.025071  0.050630  0.008383)
 74:   1151.86   0.080338  406.00  0.021765  ( 0.056828  0.097983 -0.094526)
 75:   1168.02   0.000699    3.53  0.000187  ( 0.004181  0.005261  0.011897)
 76:   1170.99   0.000238    1.20  0.000063  (-0.003503  0.006356 -0.003269)
 77:   1172.18   0.000378    1.91  0.000101  (-0.008843  0.004112  0.002324)
 78:   1175.96   0.002523   12.75  0.000670  (-0.019571 -0.004016  0.016446)
 79:   1193.71   0.005587   28.23  0.001461  (-0.021611 -0.027389  0.015599)
 80:   1198.67   0.013412   67.78  0.003492  (-0.029252 -0.051338 -0.000681)
 81:   1214.36   0.001384    6.99  0.000356  ( 0.017567 -0.004955 -0.004747)
 82:   1222.15   0.009592   48.47  0.002449  ( 0.029691  0.039585  0.000794)
 83:   1237.20   0.004854   24.53  0.001224  (-0.021853  0.027298 -0.001273)
 84:   1241.28   0.025466  128.69  0.006402  ( 0.040414  0.056180 -0.040158)
 85:   1271.72   0.029039  146.75  0.007126  ( 0.062690  0.037329 -0.042454)
 86:   1290.42   0.083809  423.54  0.020268  (-0.029363 -0.133762  0.038900)
 87:   1303.84   0.064497  325.94  0.015437  ( 0.046191 -0.025510 -0.112484)
 88:   1321.61   0.018618   94.09  0.004396  (-0.012522  0.063722  0.013373)
 89:   1332.54   0.026265  132.73  0.006151  ( 0.052360 -0.056375  0.015204)
 90:   1340.36   0.001396    7.06  0.000325  ( 0.002798 -0.002333 -0.017659)
 91:   1380.66   0.017630   89.09  0.003985  (-0.055762 -0.003809  0.029342)
 92:   1386.74   0.002171   10.97  0.000489  (-0.000403 -0.003654  0.021797)
 93:   1417.03   0.047090  237.97  0.010370  ( 0.079529 -0.062644  0.011005)
 94:   1429.60   0.014516   73.36  0.003169  (-0.000711  0.055869 -0.006837)
 95:   1465.69   0.003582   18.10  0.000763  (-0.022452  0.015730  0.003341)
 96:   1466.40   0.006057   30.61  0.001289  ( 0.003435  0.015482  0.032210)
 97:   1472.31   0.006070   30.68  0.001287  ( 0.016102  0.022283 -0.023038)
 98:   1473.97   0.002992   15.12  0.000633  (-0.003083  0.023767 -0.007686)
 99:   1480.95   0.017075   86.29  0.003598  ( 0.043853  0.039769  0.009661)
100:   1482.72   0.004776   24.14  0.001005  (-0.003264 -0.011716 -0.029280)
101:   1492.43   0.016317   82.46  0.003412  ( 0.001731  0.001951 -0.058352)
102:   1499.02   0.012693   64.14  0.002642  ( 0.015211 -0.018847 -0.045340)
103:   1528.14   0.000774    3.91  0.000158  (-0.012339  0.002274  0.000791)
104:   1539.01   0.041050  207.45  0.008324  (-0.028156  0.031338  0.080925)
105:   1570.13   0.207919  1050.74  0.041324  ( 0.180223  0.037165 -0.086383)
106:   1647.92   0.001715    8.67  0.000325  ( 0.000161 -0.002357 -0.017867)
107:   1650.05   0.002838   14.34  0.000537  (-0.015197  0.006962  0.016040)
108:   1664.66   0.011880   60.04  0.002227  (-0.037072  0.027071  0.010951)
109:   1665.08   0.012090   61.10  0.002266  ( 0.011731  0.016354  0.043138)
110:   1787.90   0.089629  452.95  0.015644  ( 0.017908 -0.023514  0.121534)
111:   2319.54   0.057805  292.12  0.007777  (-0.017462 -0.064610  0.057424)
112:   3037.99   0.011874   60.01  0.001220  (-0.028323  0.004119  0.020014)
113:   3074.67   0.005323   26.90  0.000540  (-0.013797 -0.017932 -0.005325)
114:   3110.41   0.007558   38.19  0.000758  ( 0.002652 -0.024224  0.012821)
115:   3114.15   0.001071    5.41  0.000107  (-0.005907 -0.005127  0.006790)
116:   3159.67   0.003434   17.35  0.000339  (-0.015291  0.009804  0.003037)
117:   3166.68   0.003578   18.08  0.000353  (-0.005114 -0.008431 -0.015981)
118:   3181.09   0.000905    4.57  0.000089  (-0.009088 -0.001614  0.001889)
119:   3194.56   0.001869    9.45  0.000183  (-0.002519 -0.006803  0.011401)
120:   3196.92   0.001241    6.27  0.000121  (-0.010289 -0.003383 -0.001947)
121:   3200.68   0.000583    2.95  0.000057  ( 0.005657 -0.003212  0.003813)
122:   3204.80   0.000777    3.93  0.000076  (-0.007929  0.003557 -0.000380)
123:   3212.63   0.000031    0.16  0.000003  ( 0.000588 -0.000813 -0.001419)
124:   3215.72   0.002518   12.73  0.000244  ( 0.002199  0.006948  0.013830)
125:   3230.17   0.000165    0.83  0.000016  (-0.000510 -0.000187 -0.003951)
126:   3231.65   0.000273    1.38  0.000026  (-0.004603 -0.000324  0.002243)
127:   3234.37   0.000295    1.49  0.000028  (-0.004319  0.003136  0.000031)
128:   3279.21   0.000299    1.51  0.000028  (-0.002461  0.001600  0.004450)

--------------------------
THERMOCHEMISTRY AT 298.15K
--------------------------

Temperature         ... 298.15 K
Pressure            ... 1.00 atm
Total Mass          ... 355.35 AMU

Throughout the following assumptions are being made:
  (1) The electronic state is orbitally nondegenerate
  (2) There are no thermally accessible electronically excited states
  (3) Hindered rotations indicated by low frequency modes are not
      treated as such but are treated as vibrations and this may
      cause some error
  (4) All equations used are the standard statistical mechanics
      equations for an ideal gas
  (5) All vibrations are strictly harmonic

freq.      18.08  E(vib)   ...       0.57
freq.      31.57  E(vib)   ...       0.55
freq.      40.29  E(vib)   ...       0.54
freq.      53.31  E(vib)   ...       0.52
freq.      53.62  E(vib)   ...       0.52
freq.      64.05  E(vib)   ...       0.51
freq.      73.30  E(vib)   ...       0.49
freq.      79.37  E(vib)   ...       0.49
freq.      98.56  E(vib)   ...       0.46
freq.     104.37  E(vib)   ...       0.46
freq.     125.72  E(vib)   ...       0.43
freq.     145.88  E(vib)   ...       0.41
freq.     151.77  E(vib)   ...       0.40
freq.     157.38  E(vib)   ...       0.40
freq.     166.72  E(vib)   ...       0.39
freq.     180.79  E(vib)   ...       0.37
freq.     192.79  E(vib)   ...       0.36
freq.     210.40  E(vib)   ...       0.34
freq.     233.38  E(vib)   ...       0.32
freq.     244.67  E(vib)   ...       0.31
freq.     262.99  E(vib)   ...       0.29
freq.     270.80  E(vib)   ...       0.29
freq.     289.21  E(vib)   ...       0.27
freq.     318.84  E(vib)   ...       0.25
freq.     331.18  E(vib)   ...       0.24
freq.     371.33  E(vib)   ...       0.21
freq.     397.99  E(vib)   ...       0.20
freq.     443.76  E(vib)   ...       0.17
freq.     473.20  E(vib)   ...       0.15
freq.     486.95  E(vib)   ...       0.15
freq.     504.26  E(vib)   ...       0.14
freq.     543.55  E(vib)   ...       0.12
freq.     558.45  E(vib)   ...       0.12
freq.     586.27  E(vib)   ...       0.11
freq.     596.15  E(vib)   ...       0.10
freq.     615.62  E(vib)   ...       0.10
freq.     632.25  E(vib)   ...       0.09
freq.     637.07  E(vib)   ...       0.09
freq.     659.90  E(vib)   ...       0.08
freq.     711.10  E(vib)   ...       0.07
freq.     714.02  E(vib)   ...       0.07
freq.     737.34  E(vib)   ...       0.06
freq.     754.32  E(vib)   ...       0.06
freq.     767.84  E(vib)   ...       0.06
freq.     773.48  E(vib)   ...       0.05
freq.     777.09  E(vib)   ...       0.05
freq.     782.65  E(vib)   ...       0.05
freq.     809.15  E(vib)   ...       0.05
freq.     837.68  E(vib)   ...       0.04
freq.     874.16  E(vib)   ...       0.04
freq.     891.86  E(vib)   ...       0.03
freq.     895.18  E(vib)   ...       0.03
freq.     962.54  E(vib)   ...       0.03
freq.     969.01  E(vib)   ...       0.03
freq.     981.37  E(vib)   ...       0.02
freq.     995.81  E(vib)   ...       0.02
freq.    1016.80  E(vib)   ...       0.02
freq.    1030.83  E(vib)   ...       0.02
freq.    1041.99  E(vib)   ...       0.02
freq.    1042.84  E(vib)   ...       0.02
freq.    1059.85  E(vib)   ...       0.02
freq.    1071.09  E(vib)   ...       0.02
freq.    1084.07  E(vib)   ...       0.02
freq.    1095.36  E(vib)   ...       0.02
freq.    1106.96  E(vib)   ...       0.02
freq.    1111.47  E(vib)   ...       0.01
freq.    1136.44  E(vib)   ...       0.01
freq.    1151.86  E(vib)   ...       0.01
freq.    1168.02  E(vib)   ...       0.01
freq.    1170.99  E(vib)   ...       0.01
freq.    1172.18  E(vib)   ...       0.01
freq.    1175.96  E(vib)   ...       0.01
freq.    1193.71  E(vib)   ...       0.01
freq.    1198.67  E(vib)   ...       0.01
freq.    1214.36  E(vib)   ...       0.01
freq.    1222.15  E(vib)   ...       0.01
freq.    1237.20  E(vib)   ...       0.01
freq.    1241.28  E(vib)   ...       0.01
freq.    1271.72  E(vib)   ...       0.01
freq.    1290.42  E(vib)   ...       0.01
freq.    1303.84  E(vib)   ...       0.01
freq.    1321.61  E(vib)   ...       0.01
freq.    1332.54  E(vib)   ...       0.01
freq.    1340.36  E(vib)   ...       0.01
freq.    1380.66  E(vib)   ...       0.01
freq.    1386.74  E(vib)   ...       0.00
freq.    1417.03  E(vib)   ...       0.00
freq.    1429.60  E(vib)   ...       0.00
freq.    1465.69  E(vib)   ...       0.00
freq.    1466.40  E(vib)   ...       0.00
freq.    1472.31  E(vib)   ...       0.00
freq.    1473.97  E(vib)   ...       0.00
freq.    1480.95  E(vib)   ...       0.00
freq.    1482.72  E(vib)   ...       0.00
freq.    1492.43  E(vib)   ...       0.00
freq.    1499.02  E(vib)   ...       0.00
freq.    1528.14  E(vib)   ...       0.00
freq.    1539.01  E(vib)   ...       0.00
freq.    1570.13  E(vib)   ...       0.00
freq.    1647.92  E(vib)   ...       0.00
freq.    1650.05  E(vib)   ...       0.00
freq.    1664.66  E(vib)   ...       0.00
freq.    1665.08  E(vib)   ...       0.00
freq.    1787.90  E(vib)   ...       0.00
freq.    2319.54  E(vib)   ...       0.00
freq.    3037.99  E(vib)   ...       0.00
freq.    3074.67  E(vib)   ...       0.00
freq.    3110.41  E(vib)   ...       0.00
freq.    3114.15  E(vib)   ...       0.00
freq.    3159.67  E(vib)   ...       0.00
freq.    3166.68  E(vib)   ...       0.00
freq.    3181.09  E(vib)   ...       0.00
freq.    3194.56  E(vib)   ...       0.00
freq.    3196.92  E(vib)   ...       0.00
freq.    3200.68  E(vib)   ...       0.00
freq.    3204.80  E(vib)   ...       0.00
freq.    3212.63  E(vib)   ...       0.00
freq.    3215.72  E(vib)   ...       0.00
freq.    3230.17  E(vib)   ...       0.00
freq.    3231.65  E(vib)   ...       0.00
freq.    3234.37  E(vib)   ...       0.00
freq.    3279.21  E(vib)   ...       0.00

------------
INNER ENERGY
------------

The inner energy is: U= E(el) + E(ZPE) + E(vib) + E(rot) + E(trans)
    E(el)   - is the total energy from the electronic structure calculation
              = E(kin-el) + E(nuc-el) + E(el-el) + E(nuc-nuc)
    E(ZPE)  - the the zero temperature vibrational energy from the frequency calculation
    E(vib)  - the the finite temperature correction to E(ZPE) due to population
              of excited vibrational states
    E(rot)  - is the rotational thermal energy
    E(trans)- is the translational thermal energy

Summary of contributions to the inner energy U:
Electronic energy                ...  -1235.49062359 Eh
Zero point energy                ...      0.33104131 Eh     207.73 kcal/mol
Thermal vibrational correction   ...      0.02097125 Eh      13.16 kcal/mol
Thermal rotational correction    ...      0.00141627 Eh       0.89 kcal/mol
Thermal translational correction ...      0.00141627 Eh       0.89 kcal/mol
-----------------------------------------------------------------------
Total thermal energy                  -1235.13577849 Eh

Rotational constants in cm-1:     0.008427     0.007393     0.005103

                             ****ORCA TERMINATED NORMALLY****
TOTAL RUN TIME: 0 days 2 hours 49 minutes 14 seconds 617 msec
